M 0.0 nn 50 x 670 y 670 rp dsr
M 0.0 sc ../mobility/scene/scen-670x670-50-600-20-0 cp ../mobility/scene/cbr-50-10-4-512 seed 0.0
M 0.0 prop Propagation/TwoRayGround ant Antenna/OmniAntenna
Sconfig 0.00000 tap: on snoop: rts? on errs? on
Sconfig 0.00000 salvage: on !bd replies? on
Sconfig 0.00000 grat error: on grat reply: on
Sconfig 0.00000 $reply for props: on ring 0 search: on
Sconfig 0.00000 using MOBICACHE
s 29.031284241 _9_ AGT  --- 0 cbr 512 [0 0 0 0] ------- [9:2 11:0 32 0] [0] 0 2
r 29.031284241 _9_ RTR  --- 0 cbr 512 [0 0 0 0] ------- [9:2 11:0 32 0] [0] 0 2
s 29.039395394 _9_ RTR  --- 1 DSR 32 [0 0 0 0] ------- [9:255 11:255 32 0] 1 [1 1] [0 1 0 0->0] [0 0 0 0->0]
r 29.040555483 _43_ RTR  --- 1 DSR 32 [0 ffffffff 9 800] ------- [9:255 11:255 32 0] 1 [1 1] [0 1 0 0->0] [0 0 0 0->0]
r 29.040555573 _16_ RTR  --- 1 DSR 32 [0 ffffffff 9 800] ------- [9:255 11:255 32 0] 1 [1 1] [0 1 0 0->0] [0 0 0 0->0]
r 29.040555625 _29_ RTR  --- 1 DSR 32 [0 ffffffff 9 800] ------- [9:255 11:255 32 0] 1 [1 1] [0 1 0 0->0] [0 0 0 0->0]
r 29.040555752 _10_ RTR  --- 1 DSR 32 [0 ffffffff 9 800] ------- [9:255 11:255 32 0] 1 [1 1] [0 1 0 0->0] [0 0 0 0->0]
r 29.040555774 _14_ RTR  --- 1 DSR 32 [0 ffffffff 9 800] ------- [9:255 11:255 32 0] 1 [1 1] [0 1 0 0->0] [0 0 0 0->0]
r 29.040555784 _22_ RTR  --- 1 DSR 32 [0 ffffffff 9 800] ------- [9:255 11:255 32 0] 1 [1 1] [0 1 0 0->0] [0 0 0 0->0]
r 29.040555908 _12_ RTR  --- 1 DSR 32 [0 ffffffff 9 800] ------- [9:255 11:255 32 0] 1 [1 1] [0 1 0 0->0] [0 0 0 0->0]
r 29.040555952 _1_ RTR  --- 1 DSR 32 [0 ffffffff 9 800] ------- [9:255 11:255 32 0] 1 [1 1] [0 1 0 0->0] [0 0 0 0->0]
r 29.040555959 _34_ RTR  --- 1 DSR 32 [0 ffffffff 9 800] ------- [9:255 11:255 32 0] 1 [1 1] [0 1 0 0->0] [0 0 0 0->0]
r 29.040555982 _0_ RTR  --- 1 DSR 32 [0 ffffffff 9 800] ------- [9:255 11:255 32 0] 1 [1 1] [0 1 0 0->0] [0 0 0 0->0]
r 29.040556013 _2_ RTR  --- 1 DSR 32 [0 ffffffff 9 800] ------- [9:255 11:255 32 0] 1 [1 1] [0 1 0 0->0] [0 0 0 0->0]
r 29.040556044 _47_ RTR  --- 1 DSR 32 [0 ffffffff 9 800] ------- [9:255 11:255 32 0] 1 [1 1] [0 1 0 0->0] [0 0 0 0->0]
r 29.040556077 _26_ RTR  --- 1 DSR 32 [0 ffffffff 9 800] ------- [9:255 11:255 32 0] 1 [1 1] [0 1 0 0->0] [0 0 0 0->0]
r 29.040556077 _33_ RTR  --- 1 DSR 32 [0 ffffffff 9 800] ------- [9:255 11:255 32 0] 1 [1 1] [0 1 0 0->0] [0 0 0 0->0]
r 29.040556095 _39_ RTR  --- 1 DSR 32 [0 ffffffff 9 800] ------- [9:255 11:255 32 0] 1 [1 1] [0 1 0 0->0] [0 0 0 0->0]
r 29.040556101 _45_ RTR  --- 1 DSR 32 [0 ffffffff 9 800] ------- [9:255 11:255 32 0] 1 [1 1] [0 1 0 0->0] [0 0 0 0->0]
r 29.040556124 _40_ RTR  --- 1 DSR 32 [0 ffffffff 9 800] ------- [9:255 11:255 32 0] 1 [1 1] [0 1 0 0->0] [0 0 0 0->0]
r 29.040556126 _46_ RTR  --- 1 DSR 32 [0 ffffffff 9 800] ------- [9:255 11:255 32 0] 1 [1 1] [0 1 0 0->0] [0 0 0 0->0]
r 29.040556127 _17_ RTR  --- 1 DSR 32 [0 ffffffff 9 800] ------- [9:255 11:255 32 0] 1 [1 1] [0 1 0 0->0] [0 0 0 0->0]
r 29.040556197 _21_ RTR  --- 1 DSR 32 [0 ffffffff 9 800] ------- [9:255 11:255 32 0] 1 [1 1] [0 1 0 0->0] [0 0 0 0->0]
r 29.040556208 _27_ RTR  --- 1 DSR 32 [0 ffffffff 9 800] ------- [9:255 11:255 32 0] 1 [1 1] [0 1 0 0->0] [0 0 0 0->0]
s 29.062900679 _9_ RTR  --- 2 DSR 32 [0 0 0 0] ------- [9:255 11:255 32 0] 1 [1 2] [0 2 0 0->0] [0 0 0 0->0]
r 29.064000768 _43_ RTR  --- 2 DSR 32 [0 ffffffff 9 800] ------- [9:255 11:255 32 0] 1 [1 2] [0 2 0 0->0] [0 0 0 0->0]
r 29.064000858 _16_ RTR  --- 2 DSR 32 [0 ffffffff 9 800] ------- [9:255 11:255 32 0] 1 [1 2] [0 2 0 0->0] [0 0 0 0->0]
r 29.064000910 _29_ RTR  --- 2 DSR 32 [0 ffffffff 9 800] ------- [9:255 11:255 32 0] 1 [1 2] [0 2 0 0->0] [0 0 0 0->0]
r 29.064001037 _10_ RTR  --- 2 DSR 32 [0 ffffffff 9 800] ------- [9:255 11:255 32 0] 1 [1 2] [0 2 0 0->0] [0 0 0 0->0]
r 29.064001059 _14_ RTR  --- 2 DSR 32 [0 ffffffff 9 800] ------- [9:255 11:255 32 0] 1 [1 2] [0 2 0 0->0] [0 0 0 0->0]
r 29.064001069 _22_ RTR  --- 2 DSR 32 [0 ffffffff 9 800] ------- [9:255 11:255 32 0] 1 [1 2] [0 2 0 0->0] [0 0 0 0->0]
r 29.064001193 _12_ RTR  --- 2 DSR 32 [0 ffffffff 9 800] ------- [9:255 11:255 32 0] 1 [1 2] [0 2 0 0->0] [0 0 0 0->0]
r 29.064001237 _1_ RTR  --- 2 DSR 32 [0 ffffffff 9 800] ------- [9:255 11:255 32 0] 1 [1 2] [0 2 0 0->0] [0 0 0 0->0]
r 29.064001244 _34_ RTR  --- 2 DSR 32 [0 ffffffff 9 800] ------- [9:255 11:255 32 0] 1 [1 2] [0 2 0 0->0] [0 0 0 0->0]
r 29.064001268 _0_ RTR  --- 2 DSR 32 [0 ffffffff 9 800] ------- [9:255 11:255 32 0] 1 [1 2] [0 2 0 0->0] [0 0 0 0->0]
r 29.064001298 _2_ RTR  --- 2 DSR 32 [0 ffffffff 9 800] ------- [9:255 11:255 32 0] 1 [1 2] [0 2 0 0->0] [0 0 0 0->0]
r 29.064001329 _47_ RTR  --- 2 DSR 32 [0 ffffffff 9 800] ------- [9:255 11:255 32 0] 1 [1 2] [0 2 0 0->0] [0 0 0 0->0]
r 29.064001362 _26_ RTR  --- 2 DSR 32 [0 ffffffff 9 800] ------- [9:255 11:255 32 0] 1 [1 2] [0 2 0 0->0] [0 0 0 0->0]
r 29.064001362 _33_ RTR  --- 2 DSR 32 [0 ffffffff 9 800] ------- [9:255 11:255 32 0] 1 [1 2] [0 2 0 0->0] [0 0 0 0->0]
r 29.064001380 _39_ RTR  --- 2 DSR 32 [0 ffffffff 9 800] ------- [9:255 11:255 32 0] 1 [1 2] [0 2 0 0->0] [0 0 0 0->0]
r 29.064001386 _45_ RTR  --- 2 DSR 32 [0 ffffffff 9 800] ------- [9:255 11:255 32 0] 1 [1 2] [0 2 0 0->0] [0 0 0 0->0]
r 29.064001409 _40_ RTR  --- 2 DSR 32 [0 ffffffff 9 800] ------- [9:255 11:255 32 0] 1 [1 2] [0 2 0 0->0] [0 0 0 0->0]
r 29.064001411 _46_ RTR  --- 2 DSR 32 [0 ffffffff 9 800] ------- [9:255 11:255 32 0] 1 [1 2] [0 2 0 0->0] [0 0 0 0->0]
r 29.064001412 _17_ RTR  --- 2 DSR 32 [0 ffffffff 9 800] ------- [9:255 11:255 32 0] 1 [1 2] [0 2 0 0->0] [0 0 0 0->0]
r 29.064001482 _21_ RTR  --- 2 DSR 32 [0 ffffffff 9 800] ------- [9:255 11:255 32 0] 1 [1 2] [0 2 0 0->0] [0 0 0 0->0]
r 29.064001493 _27_ RTR  --- 2 DSR 32 [0 ffffffff 9 800] ------- [9:255 11:255 32 0] 1 [1 2] [0 2 0 0->0] [0 0 0 0->0]
f 29.064188108 _2_ RTR  --- 2 DSR 48 [0 ffffffff 9 800] ------- [9:255 11:255 32 0] 2 [1 2] [0 2 0 0->0] [0 0 0 0->0]
f 29.065030679 _26_ RTR  --- 2 DSR 48 [0 ffffffff 9 800] ------- [9:255 11:255 32 0] 2 [1 2] [0 2 0 0->0] [0 0 0 0->0]
r 29.065296406 _45_ RTR  --- 2 DSR 48 [0 ffffffff 2 800] ------- [9:255 11:255 32 0] 2 [1 2] [0 2 0 0->0] [0 0 0 0->0]
r 29.065296423 _1_ RTR  --- 2 DSR 48 [0 ffffffff 2 800] ------- [9:255 11:255 32 0] 2 [1 2] [0 2 0 0->0] [0 0 0 0->0]
r 29.065296429 _33_ RTR  --- 2 DSR 48 [0 ffffffff 2 800] ------- [9:255 11:255 32 0] 2 [1 2] [0 2 0 0->0] [0 0 0 0->0]
r 29.065296492 _19_ RTR  --- 2 DSR 48 [0 ffffffff 2 800] ------- [9:255 11:255 32 0] 2 [1 2] [0 2 0 0->0] [0 0 0 0->0]
r 29.065296515 _26_ RTR  --- 2 DSR 48 [0 ffffffff 2 800] ------- [9:255 11:255 32 0] 2 [1 2] [0 2 0 0->0] [0 0 0 0->0]
r 29.065296546 _12_ RTR  --- 2 DSR 48 [0 ffffffff 2 800] ------- [9:255 11:255 32 0] 2 [1 2] [0 2 0 0->0] [0 0 0 0->0]
r 29.065296564 _40_ RTR  --- 2 DSR 48 [0 ffffffff 2 800] ------- [9:255 11:255 32 0] 2 [1 2] [0 2 0 0->0] [0 0 0 0->0]
r 29.065296715 _43_ RTR  --- 2 DSR 48 [0 ffffffff 2 800] ------- [9:255 11:255 32 0] 2 [1 2] [0 2 0 0->0] [0 0 0 0->0]
r 29.065296727 _9_ RTR  --- 2 DSR 48 [0 ffffffff 2 800] ------- [9:255 11:255 32 0] 2 [1 2] [0 2 0 0->0] [0 0 0 0->0]
r 29.065296895 _16_ RTR  --- 2 DSR 48 [0 ffffffff 2 800] ------- [9:255 11:255 32 0] 2 [1 2] [0 2 0 0->0] [0 0 0 0->0]
f 29.065660835 _46_ RTR  --- 2 DSR 48 [0 ffffffff 9 800] ------- [9:255 11:255 32 0] 2 [1 2] [0 2 0 0->0] [0 0 0 0->0]
f 29.065728160 _40_ RTR  --- 2 DSR 48 [0 ffffffff 9 800] ------- [9:255 11:255 32 0] 2 [1 2] [0 2 0 0->0] [0 0 0 0->0]
f 29.065738872 _47_ RTR  --- 2 DSR 48 [0 ffffffff 9 800] ------- [9:255 11:255 32 0] 2 [1 2] [0 2 0 0->0] [0 0 0 0->0]
f 29.065850576 _10_ RTR  --- 2 DSR 48 [0 ffffffff 9 800] ------- [9:255 11:255 32 0] 2 [1 2] [0 2 0 0->0] [0 0 0 0->0]
r 29.066614610 _33_ RTR  --- 2 DSR 48 [0 ffffffff 1a 800] ------- [9:255 11:255 32 0] 2 [1 2] [0 2 0 0->0] [0 0 0 0->0]
r 29.066614922 _2_ RTR  --- 2 DSR 48 [0 ffffffff 1a 800] ------- [9:255 11:255 32 0] 2 [1 2] [0 2 0 0->0] [0 0 0 0->0]
r 29.066615180 _19_ RTR  --- 2 DSR 48 [0 ffffffff 1a 800] ------- [9:255 11:255 32 0] 2 [1 2] [0 2 0 0->0] [0 0 0 0->0]
r 29.066615198 _9_ RTR  --- 2 DSR 48 [0 ffffffff 1a 800] ------- [9:255 11:255 32 0] 2 [1 2] [0 2 0 0->0] [0 0 0 0->0]
r 29.066615204 _1_ RTR  --- 2 DSR 48 [0 ffffffff 1a 800] ------- [9:255 11:255 32 0] 2 [1 2] [0 2 0 0->0] [0 0 0 0->0]
r 29.066615220 _45_ RTR  --- 2 DSR 48 [0 ffffffff 1a 800] ------- [9:255 11:255 32 0] 2 [1 2] [0 2 0 0->0] [0 0 0 0->0]
r 29.066615239 _43_ RTR  --- 2 DSR 48 [0 ffffffff 1a 800] ------- [9:255 11:255 32 0] 2 [1 2] [0 2 0 0->0] [0 0 0 0->0]
r 29.066615247 _14_ RTR  --- 2 DSR 48 [0 ffffffff 1a 800] ------- [9:255 11:255 32 0] 2 [1 2] [0 2 0 0->0] [0 0 0 0->0]
r 29.066615298 _12_ RTR  --- 2 DSR 48 [0 ffffffff 1a 800] ------- [9:255 11:255 32 0] 2 [1 2] [0 2 0 0->0] [0 0 0 0->0]
r 29.066615307 _16_ RTR  --- 2 DSR 48 [0 ffffffff 1a 800] ------- [9:255 11:255 32 0] 2 [1 2] [0 2 0 0->0] [0 0 0 0->0]
f 29.066856109 _21_ RTR  --- 2 DSR 48 [0 ffffffff 9 800] ------- [9:255 11:255 32 0] 2 [1 2] [0 2 0 0->0] [0 0 0 0->0]
f 29.067378359 _17_ RTR  --- 2 DSR 48 [0 ffffffff 9 800] ------- [9:255 11:255 32 0] 2 [1 2] [0 2 0 0->0] [0 0 0 0->0]
f 29.067561810 _19_ RTR  --- 2 DSR 68 [0 ffffffff 2 800] ------- [9:255 11:255 32 0] 3 [1 2] [0 2 0 0->0] [0 0 0 0->0]
f 29.067788207 _45_ RTR  --- 2 DSR 48 [0 ffffffff 9 800] ------- [9:255 11:255 32 0] 2 [1 2] [0 2 0 0->0] [0 0 0 0->0]
f 29.067802797 _0_ RTR  --- 2 DSR 48 [0 ffffffff 9 800] ------- [9:255 11:255 32 0] 2 [1 2] [0 2 0 0->0] [0 0 0 0->0]
r 29.067918214 _48_ RTR  --- 2 DSR 48 [0 ffffffff 15 800] ------- [9:255 11:255 32 0] 2 [1 2] [0 2 0 0->0] [0 0 0 0->0]
r 29.067918262 _39_ RTR  --- 2 DSR 48 [0 ffffffff 15 800] ------- [9:255 11:255 32 0] 2 [1 2] [0 2 0 0->0] [0 0 0 0->0]
r 29.067918279 _42_ RTR  --- 2 DSR 48 [0 ffffffff 15 800] ------- [9:255 11:255 32 0] 2 [1 2] [0 2 0 0->0] [0 0 0 0->0]
r 29.067918280 _46_ RTR  --- 2 DSR 48 [0 ffffffff 15 800] ------- [9:255 11:255 32 0] 2 [1 2] [0 2 0 0->0] [0 0 0 0->0]
r 29.067918305 _32_ RTR  --- 2 DSR 48 [0 ffffffff 15 800] ------- [9:255 11:255 32 0] 2 [1 2] [0 2 0 0->0] [0 0 0 0->0]
r 29.067918378 _41_ RTR  --- 2 DSR 48 [0 ffffffff 15 800] ------- [9:255 11:255 32 0] 2 [1 2] [0 2 0 0->0] [0 0 0 0->0]
r 29.067918385 _44_ RTR  --- 2 DSR 48 [0 ffffffff 15 800] ------- [9:255 11:255 32 0] 2 [1 2] [0 2 0 0->0] [0 0 0 0->0]
r 29.067918426 _12_ RTR  --- 2 DSR 48 [0 ffffffff 15 800] ------- [9:255 11:255 32 0] 2 [1 2] [0 2 0 0->0] [0 0 0 0->0]
r 29.067918478 _18_ RTR  --- 2 DSR 48 [0 ffffffff 15 800] ------- [9:255 11:255 32 0] 2 [1 2] [0 2 0 0->0] [0 0 0 0->0]
r 29.067918498 _47_ RTR  --- 2 DSR 48 [0 ffffffff 15 800] ------- [9:255 11:255 32 0] 2 [1 2] [0 2 0 0->0] [0 0 0 0->0]
r 29.067918516 _25_ RTR  --- 2 DSR 48 [0 ffffffff 15 800] ------- [9:255 11:255 32 0] 2 [1 2] [0 2 0 0->0] [0 0 0 0->0]
r 29.067918521 _40_ RTR  --- 2 DSR 48 [0 ffffffff 15 800] ------- [9:255 11:255 32 0] 2 [1 2] [0 2 0 0->0] [0 0 0 0->0]
r 29.067918527 _13_ RTR  --- 2 DSR 48 [0 ffffffff 15 800] ------- [9:255 11:255 32 0] 2 [1 2] [0 2 0 0->0] [0 0 0 0->0]
r 29.067918557 _1_ RTR  --- 2 DSR 48 [0 ffffffff 15 800] ------- [9:255 11:255 32 0] 2 [1 2] [0 2 0 0->0] [0 0 0 0->0]
r 29.067918560 _43_ RTR  --- 2 DSR 48 [0 ffffffff 15 800] ------- [9:255 11:255 32 0] 2 [1 2] [0 2 0 0->0] [0 0 0 0->0]
r 29.067918567 _27_ RTR  --- 2 DSR 48 [0 ffffffff 15 800] ------- [9:255 11:255 32 0] 2 [1 2] [0 2 0 0->0] [0 0 0 0->0]
r 29.067918592 _29_ RTR  --- 2 DSR 48 [0 ffffffff 15 800] ------- [9:255 11:255 32 0] 2 [1 2] [0 2 0 0->0] [0 0 0 0->0]
r 29.067918610 _5_ RTR  --- 2 DSR 48 [0 ffffffff 15 800] ------- [9:255 11:255 32 0] 2 [1 2] [0 2 0 0->0] [0 0 0 0->0]
r 29.067918611 _0_ RTR  --- 2 DSR 48 [0 ffffffff 15 800] ------- [9:255 11:255 32 0] 2 [1 2] [0 2 0 0->0] [0 0 0 0->0]
r 29.067918617 _3_ RTR  --- 2 DSR 48 [0 ffffffff 15 800] ------- [9:255 11:255 32 0] 2 [1 2] [0 2 0 0->0] [0 0 0 0->0]
r 29.067918641 _20_ RTR  --- 2 DSR 48 [0 ffffffff 15 800] ------- [9:255 11:255 32 0] 2 [1 2] [0 2 0 0->0] [0 0 0 0->0]
r 29.067918646 _9_ RTR  --- 2 DSR 48 [0 ffffffff 15 800] ------- [9:255 11:255 32 0] 2 [1 2] [0 2 0 0->0] [0 0 0 0->0]
r 29.067918668 _45_ RTR  --- 2 DSR 48 [0 ffffffff 15 800] ------- [9:255 11:255 32 0] 2 [1 2] [0 2 0 0->0] [0 0 0 0->0]
f 29.068341959 _44_ RTR  --- 2 DSR 68 [0 ffffffff 15 800] ------- [9:255 11:255 32 0] 3 [1 2] [0 2 0 0->0] [0 0 0 0->0]
f 29.068786907 _20_ RTR  --- 2 DSR 68 [0 ffffffff 15 800] ------- [9:255 11:255 32 0] 3 [1 2] [0 2 0 0->0] [0 0 0 0->0]
r 29.068856759 _47_ RTR  --- 2 DSR 48 [0 ffffffff 0 800] ------- [9:255 11:255 32 0] 2 [1 2] [0 2 0 0->0] [0 0 0 0->0]
r 29.068856877 _27_ RTR  --- 2 DSR 48 [0 ffffffff 0 800] ------- [9:255 11:255 32 0] 2 [1 2] [0 2 0 0->0] [0 0 0 0->0]
r 29.068856927 _22_ RTR  --- 2 DSR 48 [0 ffffffff 0 800] ------- [9:255 11:255 32 0] 2 [1 2] [0 2 0 0->0] [0 0 0 0->0]
r 29.068856970 _29_ RTR  --- 2 DSR 48 [0 ffffffff 0 800] ------- [9:255 11:255 32 0] 2 [1 2] [0 2 0 0->0] [0 0 0 0->0]
r 29.068856998 _39_ RTR  --- 2 DSR 48 [0 ffffffff 0 800] ------- [9:255 11:255 32 0] 2 [1 2] [0 2 0 0->0] [0 0 0 0->0]
r 29.068857003 _46_ RTR  --- 2 DSR 48 [0 ffffffff 0 800] ------- [9:255 11:255 32 0] 2 [1 2] [0 2 0 0->0] [0 0 0 0->0]
r 29.068857014 _7_ RTR  --- 2 DSR 48 [0 ffffffff 0 800] ------- [9:255 11:255 32 0] 2 [1 2] [0 2 0 0->0] [0 0 0 0->0]
r 29.068857039 _34_ RTR  --- 2 DSR 48 [0 ffffffff 0 800] ------- [9:255 11:255 32 0] 2 [1 2] [0 2 0 0->0] [0 0 0 0->0]
r 29.068857062 _23_ RTR  --- 2 DSR 48 [0 ffffffff 0 800] ------- [9:255 11:255 32 0] 2 [1 2] [0 2 0 0->0] [0 0 0 0->0]
r 29.068857093 _16_ RTR  --- 2 DSR 48 [0 ffffffff 0 800] ------- [9:255 11:255 32 0] 2 [1 2] [0 2 0 0->0] [0 0 0 0->0]
r 29.068857106 _4_ RTR  --- 2 DSR 48 [0 ffffffff 0 800] ------- [9:255 11:255 32 0] 2 [1 2] [0 2 0 0->0] [0 0 0 0->0]
r 29.068857137 _10_ RTR  --- 2 DSR 48 [0 ffffffff 0 800] ------- [9:255 11:255 32 0] 2 [1 2] [0 2 0 0->0] [0 0 0 0->0]
r 29.068857171 _18_ RTR  --- 2 DSR 48 [0 ffffffff 0 800] ------- [9:255 11:255 32 0] 2 [1 2] [0 2 0 0->0] [0 0 0 0->0]
r 29.068857186 _43_ RTR  --- 2 DSR 48 [0 ffffffff 0 800] ------- [9:255 11:255 32 0] 2 [1 2] [0 2 0 0->0] [0 0 0 0->0]
r 29.068857199 _9_ RTR  --- 2 DSR 48 [0 ffffffff 0 800] ------- [9:255 11:255 32 0] 2 [1 2] [0 2 0 0->0] [0 0 0 0->0]
r 29.068857202 _37_ RTR  --- 2 DSR 48 [0 ffffffff 0 800] ------- [9:255 11:255 32 0] 2 [1 2] [0 2 0 0->0] [0 0 0 0->0]
r 29.068857286 _6_ RTR  --- 2 DSR 48 [0 ffffffff 0 800] ------- [9:255 11:255 32 0] 2 [1 2] [0 2 0 0->0] [0 0 0 0->0]
r 29.068857292 _14_ RTR  --- 2 DSR 48 [0 ffffffff 0 800] ------- [9:255 11:255 32 0] 2 [1 2] [0 2 0 0->0] [0 0 0 0->0]
r 29.068857326 _38_ RTR  --- 2 DSR 48 [0 ffffffff 0 800] ------- [9:255 11:255 32 0] 2 [1 2] [0 2 0 0->0] [0 0 0 0->0]
r 29.068857379 _21_ RTR  --- 2 DSR 48 [0 ffffffff 0 800] ------- [9:255 11:255 32 0] 2 [1 2] [0 2 0 0->0] [0 0 0 0->0]
r 29.068857403 _48_ RTR  --- 2 DSR 48 [0 ffffffff 0 800] ------- [9:255 11:255 32 0] 2 [1 2] [0 2 0 0->0] [0 0 0 0->0]
r 29.068857425 _36_ RTR  --- 2 DSR 48 [0 ffffffff 0 800] ------- [9:255 11:255 32 0] 2 [1 2] [0 2 0 0->0] [0 0 0 0->0]
r 29.068857431 _17_ RTR  --- 2 DSR 48 [0 ffffffff 0 800] ------- [9:255 11:255 32 0] 2 [1 2] [0 2 0 0->0] [0 0 0 0->0]
f 29.069121397 _34_ RTR  --- 2 DSR 48 [0 ffffffff 9 800] ------- [9:255 11:255 32 0] 2 [1 2] [0 2 0 0->0] [0 0 0 0->0]
f 29.069216378 _38_ RTR  --- 2 DSR 68 [0 ffffffff 0 800] ------- [9:255 11:255 32 0] 3 [1 2] [0 2 0 0->0] [0 0 0 0->0]
f 29.069247143 _36_ RTR  --- 2 DSR 68 [0 ffffffff 0 800] ------- [9:255 11:255 32 0] 3 [1 2] [0 2 0 0->0] [0 0 0 0->0]
f 29.069354822 _12_ RTR  --- 2 DSR 48 [0 ffffffff 9 800] ------- [9:255 11:255 32 0] 2 [1 2] [0 2 0 0->0] [0 0 0 0->0]
r 29.069875295 _14_ RTR  --- 2 DSR 48 [0 ffffffff a 800] ------- [9:255 11:255 32 0] 2 [1 2] [0 2 0 0->0] [0 0 0 0->0]
r 29.069875329 _16_ RTR  --- 2 DSR 48 [0 ffffffff a 800] ------- [9:255 11:255 32 0] 2 [1 2] [0 2 0 0->0] [0 0 0 0->0]
r 29.069875347 _22_ RTR  --- 2 DSR 48 [0 ffffffff a 800] ------- [9:255 11:255 32 0] 2 [1 2] [0 2 0 0->0] [0 0 0 0->0]
r 29.069875389 _34_ RTR  --- 2 DSR 48 [0 ffffffff a 800] ------- [9:255 11:255 32 0] 2 [1 2] [0 2 0 0->0] [0 0 0 0->0]
r 29.069875445 _29_ RTR  --- 2 DSR 48 [0 ffffffff a 800] ------- [9:255 11:255 32 0] 2 [1 2] [0 2 0 0->0] [0 0 0 0->0]
r 29.069875495 _9_ RTR  --- 2 DSR 48 [0 ffffffff a 800] ------- [9:255 11:255 32 0] 2 [1 2] [0 2 0 0->0] [0 0 0 0->0]
r 29.069875531 _17_ RTR  --- 2 DSR 48 [0 ffffffff a 800] ------- [9:255 11:255 32 0] 2 [1 2] [0 2 0 0->0] [0 0 0 0->0]
r 29.069875566 _43_ RTR  --- 2 DSR 48 [0 ffffffff a 800] ------- [9:255 11:255 32 0] 2 [1 2] [0 2 0 0->0] [0 0 0 0->0]
r 29.069875663 _0_ RTR  --- 2 DSR 48 [0 ffffffff a 800] ------- [9:255 11:255 32 0] 2 [1 2] [0 2 0 0->0] [0 0 0 0->0]
r 29.069875782 _36_ RTR  --- 2 DSR 48 [0 ffffffff a 800] ------- [9:255 11:255 32 0] 2 [1 2] [0 2 0 0->0] [0 0 0 0->0]
r 29.069875789 _47_ RTR  --- 2 DSR 48 [0 ffffffff a 800] ------- [9:255 11:255 32 0] 2 [1 2] [0 2 0 0->0] [0 0 0 0->0]
r 29.069875842 _7_ RTR  --- 2 DSR 48 [0 ffffffff a 800] ------- [9:255 11:255 32 0] 2 [1 2] [0 2 0 0->0] [0 0 0 0->0]
r 29.069875845 _11_ RTR  --- 2 DSR 48 [0 ffffffff a 800] ------- [9:255 11:255 32 0] 2 [1 2] [0 2 0 0->0] [0 0 0 0->0]
r 29.069875864 _30_ RTR  --- 2 DSR 48 [0 ffffffff a 800] ------- [9:255 11:255 32 0] 2 [1 2] [0 2 0 0->0] [0 0 0 0->0]
f 29.070421524 _22_ RTR  --- 2 DSR 48 [0 ffffffff 9 800] ------- [9:255 11:255 32 0] 2 [1 2] [0 2 0 0->0] [0 0 0 0->0]
f 29.070505633 _6_ RTR  --- 2 DSR 68 [0 ffffffff 0 800] ------- [9:255 11:255 32 0] 3 [1 2] [0 2 0 0->0] [0 0 0 0->0]
r 29.070580263 _28_ RTR  --- 2 DSR 68 [0 ffffffff 14 800] ------- [9:255 11:255 32 0] 3 [1 2] [0 2 0 0->0] [0 0 0 0->0]
r 29.070580277 _31_ RTR  --- 2 DSR 68 [0 ffffffff 14 800] ------- [9:255 11:255 32 0] 3 [1 2] [0 2 0 0->0] [0 0 0 0->0]
f 29.070815913 _39_ RTR  --- 2 DSR 48 [0 ffffffff 9 800] ------- [9:255 11:255 32 0] 2 [1 2] [0 2 0 0->0] [0 0 0 0->0]
r 29.070934145 _30_ RTR  --- 2 DSR 68 [0 ffffffff 24 800] ------- [9:255 11:255 32 0] 3 [1 2] [0 2 0 0->0] [0 0 0 0->0]
r 29.070934195 _17_ RTR  --- 2 DSR 68 [0 ffffffff 24 800] ------- [9:255 11:255 32 0] 3 [1 2] [0 2 0 0->0] [0 0 0 0->0]
r 29.070934239 _34_ RTR  --- 2 DSR 68 [0 ffffffff 24 800] ------- [9:255 11:255 32 0] 3 [1 2] [0 2 0 0->0] [0 0 0 0->0]
r 29.070934386 _7_ RTR  --- 2 DSR 68 [0 ffffffff 24 800] ------- [9:255 11:255 32 0] 3 [1 2] [0 2 0 0->0] [0 0 0 0->0]
r 29.070934396 _11_ RTR  --- 2 DSR 68 [0 ffffffff 24 800] ------- [9:255 11:255 32 0] 3 [1 2] [0 2 0 0->0] [0 0 0 0->0]
r 29.070934427 _10_ RTR  --- 2 DSR 68 [0 ffffffff 24 800] ------- [9:255 11:255 32 0] 3 [1 2] [0 2 0 0->0] [0 0 0 0->0]
r 29.070934447 _22_ RTR  --- 2 DSR 68 [0 ffffffff 24 800] ------- [9:255 11:255 32 0] 3 [1 2] [0 2 0 0->0] [0 0 0 0->0]
r 29.070934487 _14_ RTR  --- 2 DSR 68 [0 ffffffff 24 800] ------- [9:255 11:255 32 0] 3 [1 2] [0 2 0 0->0] [0 0 0 0->0]
r 29.070934559 _37_ RTR  --- 2 DSR 68 [0 ffffffff 24 800] ------- [9:255 11:255 32 0] 3 [1 2] [0 2 0 0->0] [0 0 0 0->0]
r 29.070934571 _6_ RTR  --- 2 DSR 68 [0 ffffffff 24 800] ------- [9:255 11:255 32 0] 3 [1 2] [0 2 0 0->0] [0 0 0 0->0]
r 29.070934595 _0_ RTR  --- 2 DSR 68 [0 ffffffff 24 800] ------- [9:255 11:255 32 0] 3 [1 2] [0 2 0 0->0] [0 0 0 0->0]
r 29.070934603 _16_ RTR  --- 2 DSR 68 [0 ffffffff 24 800] ------- [9:255 11:255 32 0] 3 [1 2] [0 2 0 0->0] [0 0 0 0->0]
f 29.071235771 _1_ RTR  --- 2 DSR 48 [0 ffffffff 9 800] ------- [9:255 11:255 32 0] 2 [1 2] [0 2 0 0->0] [0 0 0 0->0]
f 29.071470814 _16_ RTR  --- 2 DSR 48 [0 ffffffff 9 800] ------- [9:255 11:255 32 0] 2 [1 2] [0 2 0 0->0] [0 0 0 0->0]
f 29.071760384 _42_ RTR  --- 2 DSR 68 [0 ffffffff 15 800] ------- [9:255 11:255 32 0] 3 [1 2] [0 2 0 0->0] [0 0 0 0->0]
r 29.071912536 _30_ RTR  --- 2 DSR 48 [0 ffffffff 11 800] ------- [9:255 11:255 32 0] 2 [1 2] [0 2 0 0->0] [0 0 0 0->0]
r 29.071912540 _11_ RTR  --- 2 DSR 48 [0 ffffffff 11 800] ------- [9:255 11:255 32 0] 2 [1 2] [0 2 0 0->0] [0 0 0 0->0]
r 29.071912560 _14_ RTR  --- 2 DSR 48 [0 ffffffff 11 800] ------- [9:255 11:255 32 0] 2 [1 2] [0 2 0 0->0] [0 0 0 0->0]
r 29.071912589 _10_ RTR  --- 2 DSR 48 [0 ffffffff 11 800] ------- [9:255 11:255 32 0] 2 [1 2] [0 2 0 0->0] [0 0 0 0->0]
r 29.071912591 _34_ RTR  --- 2 DSR 48 [0 ffffffff 11 800] ------- [9:255 11:255 32 0] 2 [1 2] [0 2 0 0->0] [0 0 0 0->0]
r 29.071912607 _36_ RTR  --- 2 DSR 48 [0 ffffffff 11 800] ------- [9:255 11:255 32 0] 2 [1 2] [0 2 0 0->0] [0 0 0 0->0]
r 29.071912736 _22_ RTR  --- 2 DSR 48 [0 ffffffff 11 800] ------- [9:255 11:255 32 0] 2 [1 2] [0 2 0 0->0] [0 0 0 0->0]
r 29.071912778 _16_ RTR  --- 2 DSR 48 [0 ffffffff 11 800] ------- [9:255 11:255 32 0] 2 [1 2] [0 2 0 0->0] [0 0 0 0->0]
r 29.071912893 _29_ RTR  --- 2 DSR 48 [0 ffffffff 11 800] ------- [9:255 11:255 32 0] 2 [1 2] [0 2 0 0->0] [0 0 0 0->0]
r 29.071912927 _9_ RTR  --- 2 DSR 48 [0 ffffffff 11 800] ------- [9:255 11:255 32 0] 2 [1 2] [0 2 0 0->0] [0 0 0 0->0]
r 29.071913008 _7_ RTR  --- 2 DSR 48 [0 ffffffff 11 800] ------- [9:255 11:255 32 0] 2 [1 2] [0 2 0 0->0] [0 0 0 0->0]
s 29.072017255 _11_ RTR  --- 4 DSR 60 [0 0 0 0] ------- [11:255 9:255 254 36] 4 [0 2] [1 2 4 9->11] [0 0 0 0->0]
f 29.072239265 _27_ RTR  --- 2 DSR 48 [0 ffffffff 9 800] ------- [9:255 11:255 32 0] 2 [1 2] [0 2 0 0->0] [0 0 0 0->0]
f 29.072307220 _14_ RTR  --- 2 DSR 48 [0 ffffffff 9 800] ------- [9:255 11:255 32 0] 2 [1 2] [0 2 0 0->0] [0 0 0 0->0]
s 29.072347883 _11_ RTR  --- 3 DSR 52 [0 0 0 0] ------- [11:255 9:255 254 10] 3 [0 2] [1 2 3 9->11] [0 0 0 0->0]
r 29.072482625 _42_ RTR  --- 2 DSR 68 [0 ffffffff 2c 800] ------- [9:255 11:255 32 0] 3 [1 2] [0 2 0 0->0] [0 0 0 0->0]
r 29.072482776 _20_ RTR  --- 2 DSR 68 [0 ffffffff 2c 800] ------- [9:255 11:255 32 0] 3 [1 2] [0 2 0 0->0] [0 0 0 0->0]
r 29.072482901 _5_ RTR  --- 2 DSR 68 [0 ffffffff 2c 800] ------- [9:255 11:255 32 0] 3 [1 2] [0 2 0 0->0] [0 0 0 0->0]
r 29.072482907 _28_ RTR  --- 2 DSR 68 [0 ffffffff 2c 800] ------- [9:255 11:255 32 0] 3 [1 2] [0 2 0 0->0] [0 0 0 0->0]
r 29.072482922 _41_ RTR  --- 2 DSR 68 [0 ffffffff 2c 800] ------- [9:255 11:255 32 0] 3 [1 2] [0 2 0 0->0] [0 0 0 0->0]
r 29.072482947 _31_ RTR  --- 2 DSR 68 [0 ffffffff 2c 800] ------- [9:255 11:255 32 0] 3 [1 2] [0 2 0 0->0] [0 0 0 0->0]
r 29.072483072 _25_ RTR  --- 2 DSR 68 [0 ffffffff 2c 800] ------- [9:255 11:255 32 0] 3 [1 2] [0 2 0 0->0] [0 0 0 0->0]
r 29.072483142 _24_ RTR  --- 2 DSR 68 [0 ffffffff 2c 800] ------- [9:255 11:255 32 0] 3 [1 2] [0 2 0 0->0] [0 0 0 0->0]
r 29.072483148 _13_ RTR  --- 2 DSR 68 [0 ffffffff 2c 800] ------- [9:255 11:255 32 0] 3 [1 2] [0 2 0 0->0] [0 0 0 0->0]
f 29.072666777 _4_ RTR  --- 2 DSR 68 [0 ffffffff 0 800] ------- [9:255 11:255 32 0] 3 [1 2] [0 2 0 0->0] [0 0 0 0->0]
f 29.072856149 _33_ RTR  --- 2 DSR 48 [0 ffffffff 9 800] ------- [9:255 11:255 32 0] 2 [1 2] [0 2 0 0->0] [0 0 0 0->0]
f 29.073680312 _43_ RTR  --- 2 DSR 48 [0 ffffffff 9 800] ------- [9:255 11:255 32 0] 2 [1 2] [0 2 0 0->0] [0 0 0 0->0]
f 29.073748911 _29_ RTR  --- 2 DSR 48 [0 ffffffff 9 800] ------- [9:255 11:255 32 0] 2 [1 2] [0 2 0 0->0] [0 0 0 0->0]
r 29.073806300 _22_ RTR  --- 2 DSR 48 [0 ffffffff 22 800] ------- [9:255 11:255 32 0] 2 [1 2] [0 2 0 0->0] [0 0 0 0->0]
r 29.073806345 _10_ RTR  --- 2 DSR 48 [0 ffffffff 22 800] ------- [9:255 11:255 32 0] 2 [1 2] [0 2 0 0->0] [0 0 0 0->0]
r 29.073806478 _16_ RTR  --- 2 DSR 48 [0 ffffffff 22 800] ------- [9:255 11:255 32 0] 2 [1 2] [0 2 0 0->0] [0 0 0 0->0]
r 29.073806479 _14_ RTR  --- 2 DSR 48 [0 ffffffff 22 800] ------- [9:255 11:255 32 0] 2 [1 2] [0 2 0 0->0] [0 0 0 0->0]
r 29.073806489 _17_ RTR  --- 2 DSR 48 [0 ffffffff 22 800] ------- [9:255 11:255 32 0] 2 [1 2] [0 2 0 0->0] [0 0 0 0->0]
r 29.073806508 _29_ RTR  --- 2 DSR 48 [0 ffffffff 22 800] ------- [9:255 11:255 32 0] 2 [1 2] [0 2 0 0->0] [0 0 0 0->0]
r 29.073806520 _0_ RTR  --- 2 DSR 48 [0 ffffffff 22 800] ------- [9:255 11:255 32 0] 2 [1 2] [0 2 0 0->0] [0 0 0 0->0]
r 29.073806550 _36_ RTR  --- 2 DSR 48 [0 ffffffff 22 800] ------- [9:255 11:255 32 0] 2 [1 2] [0 2 0 0->0] [0 0 0 0->0]
r 29.073806567 _7_ RTR  --- 2 DSR 48 [0 ffffffff 22 800] ------- [9:255 11:255 32 0] 2 [1 2] [0 2 0 0->0] [0 0 0 0->0]
r 29.073806657 _9_ RTR  --- 2 DSR 48 [0 ffffffff 22 800] ------- [9:255 11:255 32 0] 2 [1 2] [0 2 0 0->0] [0 0 0 0->0]
r 29.073806668 _47_ RTR  --- 2 DSR 48 [0 ffffffff 22 800] ------- [9:255 11:255 32 0] 2 [1 2] [0 2 0 0->0] [0 0 0 0->0]
r 29.073806707 _43_ RTR  --- 2 DSR 48 [0 ffffffff 22 800] ------- [9:255 11:255 32 0] 2 [1 2] [0 2 0 0->0] [0 0 0 0->0]
r 29.073806748 _30_ RTR  --- 2 DSR 48 [0 ffffffff 22 800] ------- [9:255 11:255 32 0] 2 [1 2] [0 2 0 0->0] [0 0 0 0->0]
r 29.073806768 _27_ RTR  --- 2 DSR 48 [0 ffffffff 22 800] ------- [9:255 11:255 32 0] 2 [1 2] [0 2 0 0->0] [0 0 0 0->0]
r 29.073806815 _37_ RTR  --- 2 DSR 48 [0 ffffffff 22 800] ------- [9:255 11:255 32 0] 2 [1 2] [0 2 0 0->0] [0 0 0 0->0]
r 29.073806834 _11_ RTR  --- 2 DSR 48 [0 ffffffff 22 800] ------- [9:255 11:255 32 0] 2 [1 2] [0 2 0 0->0] [0 0 0 0->0]
r 29.073806874 _6_ RTR  --- 2 DSR 48 [0 ffffffff 22 800] ------- [9:255 11:255 32 0] 2 [1 2] [0 2 0 0->0] [0 0 0 0->0]
r 29.073806874 _23_ RTR  --- 2 DSR 48 [0 ffffffff 22 800] ------- [9:255 11:255 32 0] 2 [1 2] [0 2 0 0->0] [0 0 0 0->0]
r 29.073806887 _39_ RTR  --- 2 DSR 48 [0 ffffffff 22 800] ------- [9:255 11:255 32 0] 2 [1 2] [0 2 0 0->0] [0 0 0 0->0]
r 29.073806899 _46_ RTR  --- 2 DSR 48 [0 ffffffff 22 800] ------- [9:255 11:255 32 0] 2 [1 2] [0 2 0 0->0] [0 0 0 0->0]
f 29.074259190 _41_ RTR  --- 2 DSR 68 [0 ffffffff 15 800] ------- [9:255 11:255 32 0] 3 [1 2] [0 2 0 0->0] [0 0 0 0->0]
r 29.074744922 _46_ RTR  --- 2 DSR 48 [0 ffffffff 27 800] ------- [9:255 11:255 32 0] 2 [1 2] [0 2 0 0->0] [0 0 0 0->0]
r 29.074745138 _47_ RTR  --- 2 DSR 48 [0 ffffffff 27 800] ------- [9:255 11:255 32 0] 2 [1 2] [0 2 0 0->0] [0 0 0 0->0]
r 29.074745194 _27_ RTR  --- 2 DSR 48 [0 ffffffff 27 800] ------- [9:255 11:255 32 0] 2 [1 2] [0 2 0 0->0] [0 0 0 0->0]
r 29.074745224 _18_ RTR  --- 2 DSR 48 [0 ffffffff 27 800] ------- [9:255 11:255 32 0] 2 [1 2] [0 2 0 0->0] [0 0 0 0->0]
r 29.074745274 _0_ RTR  --- 2 DSR 48 [0 ffffffff 27 800] ------- [9:255 11:255 32 0] 2 [1 2] [0 2 0 0->0] [0 0 0 0->0]
r 29.074745302 _48_ RTR  --- 2 DSR 48 [0 ffffffff 27 800] ------- [9:255 11:255 32 0] 2 [1 2] [0 2 0 0->0] [0 0 0 0->0]
r 29.074745305 _21_ RTR  --- 2 DSR 48 [0 ffffffff 27 800] ------- [9:255 11:255 32 0] 2 [1 2] [0 2 0 0->0] [0 0 0 0->0]
r 29.074745399 _4_ RTR  --- 2 DSR 48 [0 ffffffff 27 800] ------- [9:255 11:255 32 0] 2 [1 2] [0 2 0 0->0] [0 0 0 0->0]
r 29.074745422 _29_ RTR  --- 2 DSR 48 [0 ffffffff 27 800] ------- [9:255 11:255 32 0] 2 [1 2] [0 2 0 0->0] [0 0 0 0->0]
r 29.074745425 _23_ RTR  --- 2 DSR 48 [0 ffffffff 27 800] ------- [9:255 11:255 32 0] 2 [1 2] [0 2 0 0->0] [0 0 0 0->0]
r 29.074745481 _3_ RTR  --- 2 DSR 48 [0 ffffffff 27 800] ------- [9:255 11:255 32 0] 2 [1 2] [0 2 0 0->0] [0 0 0 0->0]
r 29.074745517 _22_ RTR  --- 2 DSR 48 [0 ffffffff 27 800] ------- [9:255 11:255 32 0] 2 [1 2] [0 2 0 0->0] [0 0 0 0->0]
r 29.074745527 _43_ RTR  --- 2 DSR 48 [0 ffffffff 27 800] ------- [9:255 11:255 32 0] 2 [1 2] [0 2 0 0->0] [0 0 0 0->0]
r 29.074745561 _38_ RTR  --- 2 DSR 48 [0 ffffffff 27 800] ------- [9:255 11:255 32 0] 2 [1 2] [0 2 0 0->0] [0 0 0 0->0]
r 29.074745572 _41_ RTR  --- 2 DSR 48 [0 ffffffff 27 800] ------- [9:255 11:255 32 0] 2 [1 2] [0 2 0 0->0] [0 0 0 0->0]
r 29.074745579 _16_ RTR  --- 2 DSR 48 [0 ffffffff 27 800] ------- [9:255 11:255 32 0] 2 [1 2] [0 2 0 0->0] [0 0 0 0->0]
r 29.074745588 _9_ RTR  --- 2 DSR 48 [0 ffffffff 27 800] ------- [9:255 11:255 32 0] 2 [1 2] [0 2 0 0->0] [0 0 0 0->0]
r 29.074745589 _13_ RTR  --- 2 DSR 48 [0 ffffffff 27 800] ------- [9:255 11:255 32 0] 2 [1 2] [0 2 0 0->0] [0 0 0 0->0]
r 29.074745618 _7_ RTR  --- 2 DSR 48 [0 ffffffff 27 800] ------- [9:255 11:255 32 0] 2 [1 2] [0 2 0 0->0] [0 0 0 0->0]
r 29.074745634 _25_ RTR  --- 2 DSR 48 [0 ffffffff 27 800] ------- [9:255 11:255 32 0] 2 [1 2] [0 2 0 0->0] [0 0 0 0->0]
r 29.074745649 _42_ RTR  --- 2 DSR 48 [0 ffffffff 27 800] ------- [9:255 11:255 32 0] 2 [1 2] [0 2 0 0->0] [0 0 0 0->0]
r 29.074745663 _12_ RTR  --- 2 DSR 48 [0 ffffffff 27 800] ------- [9:255 11:255 32 0] 2 [1 2] [0 2 0 0->0] [0 0 0 0->0]
r 29.074745682 _34_ RTR  --- 2 DSR 48 [0 ffffffff 27 800] ------- [9:255 11:255 32 0] 2 [1 2] [0 2 0 0->0] [0 0 0 0->0]
r 29.074745700 _8_ RTR  --- 2 DSR 48 [0 ffffffff 27 800] ------- [9:255 11:255 32 0] 2 [1 2] [0 2 0 0->0] [0 0 0 0->0]
r 29.074745704 _10_ RTR  --- 2 DSR 48 [0 ffffffff 27 800] ------- [9:255 11:255 32 0] 2 [1 2] [0 2 0 0->0] [0 0 0 0->0]
f 29.074781209 _24_ RTR  --- 2 DSR 92 [0 ffffffff 2c 800] ------- [9:255 11:255 32 0] 4 [1 2] [0 2 0 0->0] [0 0 0 0->0]
f 29.074908661 _23_ RTR  --- 2 DSR 68 [0 ffffffff 0 800] ------- [9:255 11:255 32 0] 3 [1 2] [0 2 0 0->0] [0 0 0 0->0]
f 29.074995528 _18_ RTR  --- 2 DSR 68 [0 ffffffff 15 800] ------- [9:255 11:255 32 0] 3 [1 2] [0 2 0 0->0] [0 0 0 0->0]
s 29.075246334 _11_ RTR  --- 5 DSR 52 [0 0 0 0] ------- [11:255 9:255 254 17] 3 [0 2] [1 2 3 9->11] [0 0 0 0->0]
r 29.075663725 _34_ RTR  --- 2 DSR 48 [0 ffffffff 16 800] ------- [9:255 11:255 32 0] 2 [1 2] [0 2 0 0->0] [0 0 0 0->0]
r 29.075663726 _29_ RTR  --- 2 DSR 48 [0 ffffffff 16 800] ------- [9:255 11:255 32 0] 2 [1 2] [0 2 0 0->0] [0 0 0 0->0]
r 29.075663727 _10_ RTR  --- 2 DSR 48 [0 ffffffff 16 800] ------- [9:255 11:255 32 0] 2 [1 2] [0 2 0 0->0] [0 0 0 0->0]
r 29.075663741 _16_ RTR  --- 2 DSR 48 [0 ffffffff 16 800] ------- [9:255 11:255 32 0] 2 [1 2] [0 2 0 0->0] [0 0 0 0->0]
r 29.075663833 _0_ RTR  --- 2 DSR 48 [0 ffffffff 16 800] ------- [9:255 11:255 32 0] 2 [1 2] [0 2 0 0->0] [0 0 0 0->0]
r 29.075663883 _14_ RTR  --- 2 DSR 48 [0 ffffffff 16 800] ------- [9:255 11:255 32 0] 2 [1 2] [0 2 0 0->0] [0 0 0 0->0]
r 29.075663906 _9_ RTR  --- 2 DSR 48 [0 ffffffff 16 800] ------- [9:255 11:255 32 0] 2 [1 2] [0 2 0 0->0] [0 0 0 0->0]