+ 0 0 2 tcp 40 C------ 0 0.0 5.0 0 0 0 0x0 0 0
- 0 0 2 tcp 40 C------ 0 0.0 5.0 0 0 0 0x0 0 0
r 0.002032 0 2 tcp 40 C------ 0 0.0 5.0 0 0 0 0x0 0 0
d 0.002032 2 3 tcp 40 C------ 0 0.0 5.0 0 0 0 0x0 0 0
+ 3 0 2 tcp 40 C--A--- 0 0.0 5.0 0 1 0 0x0 0 0
- 3 0 2 tcp 40 C--A--- 0 0.0 5.0 0 1 0 0x0 0 0
r 3.002032 0 2 tcp 40 C--A--- 0 0.0 5.0 0 1 0 0x0 0 0
d 3.002032 2 3 tcp 40 C--A--- 0 0.0 5.0 0 1 0 0x0 0 0
+ 9 0 2 tcp 40 C--A--- 0 0.0 5.0 0 2 0 0x0 0 0
- 9 0 2 tcp 40 C--A--- 0 0.0 5.0 0 2 0 0x0 0 0
r 9.002032 0 2 tcp 40 C--A--- 0 0.0 5.0 0 2 0 0x0 0 0
d 9.002032 2 3 tcp 40 C--A--- 0 0.0 5.0 0 2 0 0x0 0 0
+ 21 0 2 tcp 40 C--A--- 0 0.0 5.0 0 3 0 0x0 0 0
- 21 0 2 tcp 40 C--A--- 0 0.0 5.0 0 3 0 0x0 0 0
r 21.002032 0 2 tcp 40 C--A--- 0 0.0 5.0 0 3 0 0x0 0 0
d 21.002032 2 3 tcp 40 C--A--- 0 0.0 5.0 0 3 0 0x0 0 0
+ 45 0 2 tcp 40 C--A--- 0 0.0 5.0 0 4 0 0x0 0 0
- 45 0 2 tcp 40 C--A--- 0 0.0 5.0 0 4 0 0x0 0 0
r 45.002032 0 2 tcp 40 C--A--- 0 0.0 5.0 0 4 0 0x0 0 0
+ 45.002032 2 3 tcp 40 C--A--- 0 0.0 5.0 0 4 0 0x0 0 0
- 45.002032 2 3 tcp 40 C--A--- 0 0.0 5.0 0 4 0 0x0 0 0
r 45.022245 2 3 tcp 40 C--A--- 0 0.0 5.0 0 4 0 0x0 0 0
+ 45.022245 3 5 tcp 40 C--A--- 0 0.0 5.0 0 4 0 0x0 0 0
- 45.022245 3 5 tcp 40 C--A--- 0 0.0 5.0 0 4 0 0x0 0 0
r 45.027277 3 5 tcp 40 C--A--- 0 0.0 5.0 0 4 0 0x0 0 0
+ 45.027277 5 3 ack 40 C------ 0 5.0 0.0 0 5 0 0x0 0 0
- 45.027277 5 3 ack 40 C------ 0 5.0 0.0 0 5 0 0x0 0 0
r 45.032309 5 3 ack 40 C------ 0 5.0 0.0 0 5 0 0x0 0 0
+ 45.032309 3 2 ack 40 C------ 0 5.0 0.0 0 5 0 0x0 0 0
- 45.032309 3 2 ack 40 C------ 0 5.0 0.0 0 5 0 0x0 0 0
r 45.052523 3 2 ack 40 C------ 0 5.0 0.0 0 5 0 0x0 0 0
+ 45.052523 2 0 ack 40 C------ 0 5.0 0.0 0 5 0 0x0 0 0
- 45.052523 2 0 ack 40 C------ 0 5.0 0.0 0 5 0 0x0 0 0
r 45.054555 2 0 ack 40 C------ 0 5.0 0.0 0 5 0 0x0 0 0
+ 45.054555 0 2 tcp 1040 ---A--N 0 0.0 5.0 1 6 0 0x0 0 0
- 45.054555 0 2 tcp 1040 ---A--N 0 0.0 5.0 1 6 0 0x0 0 0
r 45.057387 0 2 tcp 1040 ---A--N 0 0.0 5.0 1 6 0 0x0 0 0
+ 45.057387 2 3 tcp 1040 ---A--N 0 0.0 5.0 1 6 0 0x0 0 0
- 45.057387 2 3 tcp 1040 ---A--N 0 0.0 5.0 1 6 0 0x0 0 0
r 45.082933 2 3 tcp 1040 ---A--N 0 0.0 5.0 1 6 0 0x0 0 0
+ 45.082933 3 5 tcp 1040 ---A--N 0 0.0 5.0 1 6 0 0x0 0 0
- 45.082933 3 5 tcp 1040 ---A--N 0 0.0 5.0 1 6 0 0x0 0 0
r 45.088765 3 5 tcp 1040 ---A--N 0 0.0 5.0 1 6 0 0x0 0 0
+ 45.088765 5 3 ack 40 ------- 0 5.0 0.0 1 7 0 0x0 0 0
- 45.088765 5 3 ack 40 ------- 0 5.0 0.0 1 7 0 0x0 0 0
r 45.093797 5 3 ack 40 ------- 0 5.0 0.0 1 7 0 0x0 0 0
+ 45.093797 3 2 ack 40 ------- 0 5.0 0.0 1 7 0 0x0 0 0
- 45.093797 3 2 ack 40 ------- 0 5.0 0.0 1 7 0 0x0 0 0
r 45.114011 3 2 ack 40 ------- 0 5.0 0.0 1 7 0 0x0 0 0
+ 45.114011 2 0 ack 40 ------- 0 5.0 0.0 1 7 0 0x0 0 0
- 45.114011 2 0 ack 40 ------- 0 5.0 0.0 1 7 0 0x0 0 0
r 45.116043 2 0 ack 40 ------- 0 5.0 0.0 1 7 0 0x0 0 0
+ 45.116043 0 2 tcp 1040 ------N 0 0.0 5.0 2 8 0 0x0 0 0
- 45.116043 0 2 tcp 1040 ------N 0 0.0 5.0 2 8 0 0x0 0 0
+ 45.116043 0 2 tcp 1040 ------N 0 0.0 5.0 3 9 0 0x0 0 0
- 45.116875 0 2 tcp 1040 ------N 0 0.0 5.0 3 9 0 0x0 0 0
r 45.118875 0 2 tcp 1040 ------N 0 0.0 5.0 2 8 0 0x0 0 0
+ 45.118875 2 3 tcp 1040 ------N 0 0.0 5.0 2 8 0 0x0 0 0
- 45.118875 2 3 tcp 1040 ------N 0 0.0 5.0 2 8 0 0x0 0 0
r 45.119707 0 2 tcp 1040 ------N 0 0.0 5.0 3 9 0 0x0 0 0
+ 45.119707 2 3 tcp 1040 ------N 0 0.0 5.0 3 9 0 0x0 0 0
- 45.124421 2 3 tcp 1040 ------N 0 0.0 5.0 3 9 0 0x0 0 0
r 45.144421 2 3 tcp 1040 ------N 0 0.0 5.0 2 8 0 0x0 0 0
+ 45.144421 3 5 tcp 1040 ------N 0 0.0 5.0 2 8 0 0x0 0 0
- 45.144421 3 5 tcp 1040 ------N 0 0.0 5.0 2 8 0 0x0 0 0
r 45.149968 2 3 tcp 1040 ------N 0 0.0 5.0 3 9 0 0x0 0 0
+ 45.149968 3 5 tcp 1040 ------N 0 0.0 5.0 3 9 0 0x0 0 0
- 45.149968 3 5 tcp 1040 ------N 0 0.0 5.0 3 9 0 0x0 0 0
r 45.150253 3 5 tcp 1040 ------N 0 0.0 5.0 2 8 0 0x0 0 0
+ 45.150253 5 3 ack 40 ------- 0 5.0 0.0 2 10 0 0x0 0 0
- 45.150253 5 3 ack 40 ------- 0 5.0 0.0 2 10 0 0x0 0 0
r 45.155285 5 3 ack 40 ------- 0 5.0 0.0 2 10 0 0x0 0 0
+ 45.155285 3 2 ack 40 ------- 0 5.0 0.0 2 10 0 0x0 0 0
- 45.155285 3 2 ack 40 ------- 0 5.0 0.0 2 10 0 0x0 0 0
r 45.1558 3 5 tcp 1040 ------N 0 0.0 5.0 3 9 0 0x0 0 0
+ 45.1558 5 3 ack 40 ------- 0 5.0 0.0 3 11 0 0x0 0 0
- 45.1558 5 3 ack 40 ------- 0 5.0 0.0 3 11 0 0x0 0 0
r 45.160832 5 3 ack 40 ------- 0 5.0 0.0 3 11 0 0x0 0 0
+ 45.160832 3 2 ack 40 ------- 0 5.0 0.0 3 11 0 0x0 0 0
- 45.160832 3 2 ack 40 ------- 0 5.0 0.0 3 11 0 0x0 0 0
r 45.175499 3 2 ack 40 ------- 0 5.0 0.0 2 10 0 0x0 0 0
+ 45.175499 2 0 ack 40 ------- 0 5.0 0.0 2 10 0 0x0 0 0
- 45.175499 2 0 ack 40 ------- 0 5.0 0.0 2 10 0 0x0 0 0
r 45.177531 2 0 ack 40 ------- 0 5.0 0.0 2 10 0 0x0 0 0
+ 45.177531 0 2 tcp 1040 ------N 0 0.0 5.0 4 12 0 0x0 0 0
- 45.177531 0 2 tcp 1040 ------N 0 0.0 5.0 4 12 0 0x0 0 0
r 45.180363 0 2 tcp 1040 ------N 0 0.0 5.0 4 12 0 0x0 0 0
+ 45.180363 2 3 tcp 1040 ------N 0 0.0 5.0 4 12 0 0x0 0 0
- 45.180363 2 3 tcp 1040 ------N 0 0.0 5.0 4 12 0 0x0 0 0
r 45.181045 3 2 ack 40 ------- 0 5.0 0.0 3 11 0 0x0 0 0
+ 45.181045 2 0 ack 40 ------- 0 5.0 0.0 3 11 0 0x0 0 0
- 45.181045 2 0 ack 40 ------- 0 5.0 0.0 3 11 0 0x0 0 0
r 45.183077 2 0 ack 40 ------- 0 5.0 0.0 3 11 0 0x0 0 0
+ 45.183077 0 2 tcp 1040 ------N 0 0.0 5.0 5 13 0 0x0 0 0
- 45.183077 0 2 tcp 1040 ------N 0 0.0 5.0 5 13 0 0x0 0 0
r 45.185909 0 2 tcp 1040 ------N 0 0.0 5.0 5 13 0 0x0 0 0
+ 45.185909 2 3 tcp 1040 ------N 0 0.0 5.0 5 13 0 0x0 0 0
- 45.185909 2 3 tcp 1040 ------N 0 0.0 5.0 5 13 0 0x0 0 0
r 45.205909 2 3 tcp 1040 ------N 0 0.0 5.0 4 12 0 0x0 0 0
+ 45.205909 3 5 tcp 1040 ------N 0 0.0 5.0 4 12 0 0x0 0 0
- 45.205909 3 5 tcp 1040 ------N 0 0.0 5.0 4 12 0 0x0 0 0
r 45.211456 2 3 tcp 1040 ------N 0 0.0 5.0 5 13 0 0x0 0 0
+ 45.211456 3 5 tcp 1040 ------N 0 0.0 5.0 5 13 0 0x0 0 0
- 45.211456 3 5 tcp 1040 ------N 0 0.0 5.0 5 13 0 0x0 0 0
r 45.211741 3 5 tcp 1040 ------N 0 0.0 5.0 4 12 0 0x0 0 0
+ 45.211741 5 3 ack 40 ------- 0 5.0 0.0 4 14 0 0x0 0 0
- 45.211741 5 3 ack 40 ------- 0 5.0 0.0 4 14 0 0x0 0 0
r 45.216773 5 3 ack 40 ------- 0 5.0 0.0 4 14 0 0x0 0 0
+ 45.216773 3 2 ack 40 ------- 0 5.0 0.0 4 14 0 0x0 0 0
- 45.216773 3 2 ack 40 ------- 0 5.0 0.0 4 14 0 0x0 0 0
r 45.217288 3 5 tcp 1040 ------N 0 0.0 5.0 5 13 0 0x0 0 0
+ 45.217288 5 3 ack 40 ------- 0 5.0 0.0 5 15 0 0x0 0 0
- 45.217288 5 3 ack 40 ------- 0 5.0 0.0 5 15 0 0x0 0 0
r 45.22232 5 3 ack 40 ------- 0 5.0 0.0 5 15 0 0x0 0 0
+ 45.22232 3 2 ack 40 ------- 0 5.0 0.0 5 15 0 0x0 0 0
- 45.22232 3 2 ack 40 ------- 0 5.0 0.0 5 15 0 0x0 0 0
r 45.236987 3 2 ack 40 ------- 0 5.0 0.0 4 14 0 0x0 0 0
+ 45.236987 2 0 ack 40 ------- 0 5.0 0.0 4 14 0 0x0 0 0
- 45.236987 2 0 ack 40 ------- 0 5.0 0.0 4 14 0 0x0 0 0
r 45.239019 2 0 ack 40 ------- 0 5.0 0.0 4 14 0 0x0 0 0
+ 45.239019 0 2 tcp 1040 ------N 0 0.0 5.0 6 16 0 0x0 0 0
- 45.239019 0 2 tcp 1040 ------N 0 0.0 5.0 6 16 0 0x0 0 0
+ 45.239019 0 2 tcp 1040 ------N 0 0.0 5.0 7 17 0 0x0 0 0
- 45.239851 0 2 tcp 1040 ------N 0 0.0 5.0 7 17 0 0x0 0 0
r 45.241851 0 2 tcp 1040 ------N 0 0.0 5.0 6 16 0 0x0 0 0
+ 45.241851 2 3 tcp 1040 ------N 0 0.0 5.0 6 16 0 0x0 0 0
- 45.241851 2 3 tcp 1040 ------N 0 0.0 5.0 6 16 0 0x0 0 0
r 45.242533 3 2 ack 40 ------- 0 5.0 0.0 5 15 0 0x0 0 0
+ 45.242533 2 0 ack 40 ------- 0 5.0 0.0 5 15 0 0x0 0 0
- 45.242533 2 0 ack 40 ------- 0 5.0 0.0 5 15 0 0x0 0 0
r 45.242683 0 2 tcp 1040 ------N 0 0.0 5.0 7 17 0 0x0 0 0
+ 45.242683 2 3 tcp 1040 ------N 0 0.0 5.0 7 17 0 0x0 0 0
r 45.244565 2 0 ack 40 ------- 0 5.0 0.0 5 15 0 0x0 0 0
+ 45.244565 0 2 tcp 1040 ------N 0 0.0 5.0 8 18 0 0x0 0 0
- 45.244565 0 2 tcp 1040 ------N 0 0.0 5.0 8 18 0 0x0 0 0
- 45.247397 2 3 tcp 1040 ------N 0 0.0 5.0 7 17 0 0x0 0 0
r 45.247397 0 2 tcp 1040 ------N 0 0.0 5.0 8 18 0 0x0 0 0
+ 45.247397 2 3 tcp 1040 ------N 0 0.0 5.0 8 18 0 0x0 0 0
- 45.252944 2 3 tcp 1040 ------N 0 0.0 5.0 8 18 0 0x0 0 0
r 45.267397 2 3 tcp 1040 ------N 0 0.0 5.0 6 16 0 0x0 0 0
+ 45.267397 3 5 tcp 1040 ------N 0 0.0 5.0 6 16 0 0x0 0 0
- 45.267397 3 5 tcp 1040 ------N 0 0.0 5.0 6 16 0 0x0 0 0
r 45.272944 2 3 tcp 1040 ------N 0 0.0 5.0 7 17 0 0x0 0 0
+ 45.272944 3 5 tcp 1040 ------N 0 0.0 5.0 7 17 0 0x0 0 0
- 45.272944 3 5 tcp 1040 ------N 0 0.0 5.0 7 17 0 0x0 0 0
r 45.273229 3 5 tcp 1040 ------N 0 0.0 5.0 6 16 0 0x0 0 0
+ 45.273229 5 3 ack 40 ------- 0 5.0 0.0 6 19 0 0x0 0 0
- 45.273229 5 3 ack 40 ------- 0 5.0 0.0 6 19 0 0x0 0 0
r 45.278261 5 3 ack 40 ------- 0 5.0 0.0 6 19 0 0x0 0 0
+ 45.278261 3 2 ack 40 ------- 0 5.0 0.0 6 19 0 0x0 0 0
- 45.278261 3 2 ack 40 ------- 0 5.0 0.0 6 19 0 0x0 0 0
r 45.278491 2 3 tcp 1040 ------N 0 0.0 5.0 8 18 0 0x0 0 0
+ 45.278491 3 5 tcp 1040 ------N 0 0.0 5.0 8 18 0 0x0 0 0
- 45.278491 3 5 tcp 1040 ------N 0 0.0 5.0 8 18 0 0x0 0 0
r 45.278776 3 5 tcp 1040 ------N 0 0.0 5.0 7 17 0 0x0 0 0
+ 45.278776 5 3 ack 40 ------- 0 5.0 0.0 7 20 0 0x0 0 0
- 45.278776 5 3 ack 40 ------- 0 5.0 0.0 7 20 0 0x0 0 0
r 45.283808 5 3 ack 40 ------- 0 5.0 0.0 7 20 0 0x0 0 0
+ 45.283808 3 2 ack 40 ------- 0 5.0 0.0 7 20 0 0x0 0 0
- 45.283808 3 2 ack 40 ------- 0 5.0 0.0 7 20 0 0x0 0 0
r 45.284323 3 5 tcp 1040 ------N 0 0.0 5.0 8 18 0 0x0 0 0
+ 45.284323 5 3 ack 40 ------- 0 5.0 0.0 8 21 0 0x0 0 0
- 45.284323 5 3 ack 40 ------- 0 5.0 0.0 8 21 0 0x0 0 0
r 45.289355 5 3 ack 40 ------- 0 5.0 0.0 8 21 0 0x0 0 0
+ 45.289355 3 2 ack 40 ------- 0 5.0 0.0 8 21 0 0x0 0 0
- 45.289355 3 2 ack 40 ------- 0 5.0 0.0 8 21 0 0x0 0 0
r 45.298475 3 2 ack 40 ------- 0 5.0 0.0 6 19 0 0x0 0 0
+ 45.298475 2 0 ack 40 ------- 0 5.0 0.0 6 19 0 0x0 0 0
- 45.298475 2 0 ack 40 ------- 0 5.0 0.0 6 19 0 0x0 0 0
r 45.300507 2 0 ack 40 ------- 0 5.0 0.0 6 19 0 0x0 0 0
+ 45.300507 0 2 tcp 1040 ------N 0 0.0 5.0 9 22 0 0x0 0 0
- 45.300507 0 2 tcp 1040 ------N 0 0.0 5.0 9 22 0 0x0 0 0
r 45.303339 0 2 tcp 1040 ------N 0 0.0 5.0 9 22 0 0x0 0 0
+ 45.303339 2 3 tcp 1040 ------N 0 0.0 5.0 9 22 0 0x0 0 0
- 45.303339 2 3 tcp 1040 ------N 0 0.0 5.0 9 22 0 0x0 0 0
r 45.304021 3 2 ack 40 ------- 0 5.0 0.0 7 20 0 0x0 0 0
+ 45.304021 2 0 ack 40 ------- 0 5.0 0.0 7 20 0 0x0 0 0
- 45.304021 2 0 ack 40 ------- 0 5.0 0.0 7 20 0 0x0 0 0
r 45.306053 2 0 ack 40 ------- 0 5.0 0.0 7 20 0 0x0 0 0
+ 45.306053 0 2 tcp 1040 ------N 0 0.0 5.0 10 23 0 0x0 0 0
- 45.306053 0 2 tcp 1040 ------N 0 0.0 5.0 10 23 0 0x0 0 0
+ 45.306053 0 2 tcp 1040 ------N 0 0.0 5.0 11 24 0 0x0 0 0
- 45.306885 0 2 tcp 1040 ------N 0 0.0 5.0 11 24 0 0x0 0 0
r 45.308885 0 2 tcp 1040 ------N 0 0.0 5.0 10 23 0 0x0 0 0
+ 45.308885 2 3 tcp 1040 ------N 0 0.0 5.0 10 23 0 0x0 0 0
- 45.308885 2 3 tcp 1040 ------N 0 0.0 5.0 10 23 0 0x0 0 0
r 45.309568 3 2 ack 40 ------- 0 5.0 0.0 8 21 0 0x0 0 0
+ 45.309568 2 0 ack 40 ------- 0 5.0 0.0 8 21 0 0x0 0 0
- 45.309568 2 0 ack 40 ------- 0 5.0 0.0 8 21 0 0x0 0 0
r 45.309717 0 2 tcp 1040 ------N 0 0.0 5.0 11 24 0 0x0 0 0
+ 45.309717 2 3 tcp 1040 ------N 0 0.0 5.0 11 24 0 0x0 0 0
r 45.3116 2 0 ack 40 ------- 0 5.0 0.0 8 21 0 0x0 0 0
+ 45.3116 0 2 tcp 1040 ------N 0 0.0 5.0 12 25 0 0x0 0 0
- 45.3116 0 2 tcp 1040 ------N 0 0.0 5.0 12 25 0 0x0 0 0
- 45.314432 2 3 tcp 1040 ------N 0 0.0 5.0 11 24 0 0x0 0 0
r 45.314432 0 2 tcp 1040 ------N 0 0.0 5.0 12 25 0 0x0 0 0
+ 45.314432 2 3 tcp 1040 ------N 0 0.0 5.0 12 25 0 0x0 0 0
- 45.319979 2 3 tcp 1040 ------N 0 0.0 5.0 12 25 0 0x0 0 0
r 45.328885 2 3 tcp 1040 ------N 0 0.0 5.0 9 22 0 0x0 0 0
+ 45.328885 3 5 tcp 1040 ------N 0 0.0 5.0 9 22 0 0x0 0 0
- 45.328885 3 5 tcp 1040 ------N 0 0.0 5.0 9 22 0 0x0 0 0
r 45.334432 2 3 tcp 1040 ------N 0 0.0 5.0 10 23 0 0x0 0 0
+ 45.334432 3 5 tcp 1040 ------N 0 0.0 5.0 10 23 0 0x0 0 0
- 45.334432 3 5 tcp 1040 ------N 0 0.0 5.0 10 23 0 0x0 0 0
r 45.334717 3 5 tcp 1040 ------N 0 0.0 5.0 9 22 0 0x0 0 0
+ 45.334717 5 3 ack 40 ------- 0 5.0 0.0 9 26 0 0x0 0 0
- 45.334717 5 3 ack 40 ------- 0 5.0 0.0 9 26 0 0x0 0 0
r 45.339749 5 3 ack 40 ------- 0 5.0 0.0 9 26 0 0x0 0 0
+ 45.339749 3 2 ack 40 ------- 0 5.0 0.0 9 26 0 0x0 0 0
- 45.339749 3 2 ack 40 ------- 0 5.0 0.0 9 26 0 0x0 0 0
r 45.339979 2 3 tcp 1040 ------N 0 0.0 5.0 11 24 0 0x0 0 0
+ 45.339979 3 5 tcp 1040 ------N 0 0.0 5.0 11 24 0 0x0 0 0
- 45.339979 3 5 tcp 1040 ------N 0 0.0 5.0 11 24 0 0x0 0 0
r 45.340264 3 5 tcp 1040 ------N 0 0.0 5.0 10 23 0 0x0 0 0
+ 45.340264 5 3 ack 40 ------- 0 5.0 0.0 10 27 0 0x0 0 0
- 45.340264 5 3 ack 40 ------- 0 5.0 0.0 10 27 0 0x0 0 0
r 45.345296 5 3 ack 40 ------- 0 5.0 0.0 10 27 0 0x0 0 0
+ 45.345296 3 2 ack 40 ------- 0 5.0 0.0 10 27 0 0x0 0 0
- 45.345296 3 2 ack 40 ------- 0 5.0 0.0 10 27 0 0x0 0 0
r 45.345525 2 3 tcp 1040 ------N 0 0.0 5.0 12 25 0 0x0 0 0
+ 45.345525 3 5 tcp 1040 ------N 0 0.0 5.0 12 25 0 0x0 0 0
- 45.345525 3 5 tcp 1040 ------N 0 0.0 5.0 12 25 0 0x0 0 0
r 45.345811 3 5 tcp 1040 ------N 0 0.0 5.0 11 24 0 0x0 0 0
+ 45.345811 5 3 ack 40 ------- 0 5.0 0.0 11 28 0 0x0 0 0
- 45.345811 5 3 ack 40 ------- 0 5.0 0.0 11 28 0 0x0 0 0
r 45.350843 5 3 ack 40 ------- 0 5.0 0.0 11 28 0 0x0 0 0
+ 45.350843 3 2 ack 40 ------- 0 5.0 0.0 11 28 0 0x0 0 0
- 45.350843 3 2 ack 40 ------- 0 5.0 0.0 11 28 0 0x0 0 0
r 45.351357 3 5 tcp 1040 ------N 0 0.0 5.0 12 25 0 0x0 0 0
+ 45.351357 5 3 ack 40 ------- 0 5.0 0.0 12 29 0 0x0 0 0
- 45.351357 5 3 ack 40 ------- 0 5.0 0.0 12 29 0 0x0 0 0
r 45.356389 5 3 ack 40 ------- 0 5.0 0.0 12 29 0 0x0 0 0
+ 45.356389 3 2 ack 40 ------- 0 5.0 0.0 12 29 0 0x0 0 0
- 45.356389 3 2 ack 40 ------- 0 5.0 0.0 12 29 0 0x0 0 0
r 45.359963 3 2 ack 40 ------- 0 5.0 0.0 9 26 0 0x0 0 0
+ 45.359963 2 0 ack 40 ------- 0 5.0 0.0 9 26 0 0x0 0 0
- 45.359963 2 0 ack 40 ------- 0 5.0 0.0 9 26 0 0x0 0 0
r 45.361995 2 0 ack 40 ------- 0 5.0 0.0 9 26 0 0x0 0 0
+ 45.361995 0 2 tcp 1040 ------N 0 0.0 5.0 13 30 0 0x0 0 0
- 45.361995 0 2 tcp 1040 ------N 0 0.0 5.0 13 30 0 0x0 0 0
r 45.364827 0 2 tcp 1040 ------N 0 0.0 5.0 13 30 0 0x0 0 0
+ 45.364827 2 3 tcp 1040 ------N 0 0.0 5.0 13 30 0 0x0 0 0
- 45.364827 2 3 tcp 1040 ------N 0 0.0 5.0 13 30 0 0x0 0 0
r 45.365509 3 2 ack 40 ------- 0 5.0 0.0 10 27 0 0x0 0 0
+ 45.365509 2 0 ack 40 ------- 0 5.0 0.0 10 27 0 0x0 0 0
- 45.365509 2 0 ack 40 ------- 0 5.0 0.0 10 27 0 0x0 0 0
r 45.367541 2 0 ack 40 ------- 0 5.0 0.0 10 27 0 0x0 0 0
+ 45.367541 0 2 tcp 1040 ------N 0 0.0 5.0 14 31 0 0x0 0 0
- 45.367541 0 2 tcp 1040 ------N 0 0.0 5.0 14 31 0 0x0 0 0
r 45.370373 0 2 tcp 1040 ------N 0 0.0 5.0 14 31 0 0x0 0 0
+ 45.370373 2 3 tcp 1040 ------N 0 0.0 5.0 14 31 0 0x0 0 0
- 45.370373 2 3 tcp 1040 ------N 0 0.0 5.0 14 31 0 0x0 0 0
r 45.371056 3 2 ack 40 ------- 0 5.0 0.0 11 28 0 0x0 0 0
+ 45.371056 2 0 ack 40 ------- 0 5.0 0.0 11 28 0 0x0 0 0
- 45.371056 2 0 ack 40 ------- 0 5.0 0.0 11 28 0 0x0 0 0
r 45.373088 2 0 ack 40 ------- 0 5.0 0.0 11 28 0 0x0 0 0
+ 45.373088 0 2 tcp 1040 ------N 0 0.0 5.0 15 32 0 0x0 0 0
- 45.373088 0 2 tcp 1040 ------N 0 0.0 5.0 15 32 0 0x0 0 0
r 45.37592 0 2 tcp 1040 ------N 0 0.0 5.0 15 32 0 0x0 0 0
+ 45.37592 2 3 tcp 1040 ------N 0 0.0 5.0 15 32 0 0x0 0 0
- 45.37592 2 3 tcp 1040 ------N 0 0.0 5.0 15 32 0 0x0 0 0
r 45.376603 3 2 ack 40 ------- 0 5.0 0.0 12 29 0 0x0 0 0
+ 45.376603 2 0 ack 40 ------- 0 5.0 0.0 12 29 0 0x0 0 0
- 45.376603 2 0 ack 40 ------- 0 5.0 0.0 12 29 0 0x0 0 0
r 45.378635 2 0 ack 40 ------- 0 5.0 0.0 12 29 0 0x0 0 0
+ 45.378635 0 2 tcp 1040 ------N 0 0.0 5.0 16 33 0 0x0 0 0
- 45.378635 0 2 tcp 1040 ------N 0 0.0 5.0 16 33 0 0x0 0 0
+ 45.378635 0 2 tcp 1040 ------N 0 0.0 5.0 17 34 0 0x0 0 0
- 45.379467 0 2 tcp 1040 ------N 0 0.0 5.0 17 34 0 0x0 0 0
r 45.381467 0 2 tcp 1040 ------N 0 0.0 5.0 16 33 0 0x0 0 0
+ 45.381467 2 3 tcp 1040 ------N 0 0.0 5.0 16 33 0 0x0 0 0
- 45.381467 2 3 tcp 1040 ------N 0 0.0 5.0 16 33 0 0x0 0 0
r 45.382299 0 2 tcp 1040 ------N 0 0.0 5.0 17 34 0 0x0 0 0
+ 45.382299 2 3 tcp 1040 ------N 0 0.0 5.0 17 34 0 0x0 0 0
- 45.387013 2 3 tcp 1040 ------N 0 0.0 5.0 17 34 0 0x0 0 0
r 45.390373 2 3 tcp 1040 ------N 0 0.0 5.0 13 30 0 0x0 0 0
+ 45.390373 3 5 tcp 1040 ------N 0 0.0 5.0 13 30 0 0x0 0 0
- 45.390373 3 5 tcp 1040 ------N 0 0.0 5.0 13 30 0 0x0 0 0
r 45.39592 2 3 tcp 1040 ------N 0 0.0 5.0 14 31 0 0x0 0 0
+ 45.39592 3 5 tcp 1040 ------N 0 0.0 5.0 14 31 0 0x0 0 0
- 45.39592 3 5 tcp 1040 ------N 0 0.0 5.0 14 31 0 0x0 0 0
r 45.396205 3 5 tcp 1040 ------N 0 0.0 5.0 13 30 0 0x0 0 0
+ 45.396205 5 3 ack 40 ------- 0 5.0 0.0 13 35 0 0x0 0 0
- 45.396205 5 3 ack 40 ------- 0 5.0 0.0 13 35 0 0x0 0 0
r 45.401237 5 3 ack 40 ------- 0 5.0 0.0 13 35 0 0x0 0 0
+ 45.401237 3 2 ack 40 ------- 0 5.0 0.0 13 35 0 0x0 0 0
- 45.401237 3 2 ack 40 ------- 0 5.0 0.0 13 35 0 0x0 0 0
r 45.401467 2 3 tcp 1040 ------N 0 0.0 5.0 15 32 0 0x0 0 0
+ 45.401467 3 5 tcp 1040 ------N 0 0.0 5.0 15 32 0 0x0 0 0
- 45.401467 3 5 tcp 1040 ------N 0 0.0 5.0 15 32 0 0x0 0 0
r 45.401752 3 5 tcp 1040 ------N 0 0.0 5.0 14 31 0 0x0 0 0
+ 45.401752 5 3 ack 40 ------- 0 5.0 0.0 14 36 0 0x0 0 0
- 45.401752 5 3 ack 40 ------- 0 5.0 0.0 14 36 0 0x0 0 0
r 45.406784 5 3 ack 40 ------- 0 5.0 0.0 14 36 0 0x0 0 0
+ 45.406784 3 2 ack 40 ------- 0 5.0 0.0 14 36 0 0x0 0 0
- 45.406784 3 2 ack 40 ------- 0 5.0 0.0 14 36 0 0x0 0 0
r 45.407013 2 3 tcp 1040 ------N 0 0.0 5.0 16 33 0 0x0 0 0
+ 45.407013 3 5 tcp 1040 ------N 0 0.0 5.0 16 33 0 0x0 0 0
- 45.407013 3 5 tcp 1040 ------N 0 0.0 5.0 16 33 0 0x0 0 0
r 45.407299 3 5 tcp 1040 ------N 0 0.0 5.0 15 32 0 0x0 0 0
+ 45.407299 5 3 ack 40 ------- 0 5.0 0.0 15 37 0 0x0 0 0
- 45.407299 5 3 ack 40 ------- 0 5.0 0.0 15 37 0 0x0 0 0
r 45.412331 5 3 ack 40 ------- 0 5.0 0.0 15 37 0 0x0 0 0
+ 45.412331 3 2 ack 40 ------- 0 5.0 0.0 15 37 0 0x0 0 0
- 45.412331 3 2 ack 40 ------- 0 5.0 0.0 15 37 0 0x0 0 0
r 45.41256 2 3 tcp 1040 ------N 0 0.0 5.0 17 34 0 0x0 0 0
+ 45.41256 3 5 tcp 1040 ------N 0 0.0 5.0 17 34 0 0x0 0 0
- 45.41256 3 5 tcp 1040 ------N 0 0.0 5.0 17 34 0 0x0 0 0
r 45.412845 3 5 tcp 1040 ------N 0 0.0 5.0 16 33 0 0x0 0 0
+ 45.412845 5 3 ack 40 ------- 0 5.0 0.0 16 38 0 0x0 0 0
- 45.412845 5 3 ack 40 ------- 0 5.0 0.0 16 38 0 0x0 0 0
r 45.417877 5 3 ack 40 ------- 0 5.0 0.0 16 38 0 0x0 0 0
+ 45.417877 3 2 ack 40 ------- 0 5.0 0.0 16 38 0 0x0 0 0
- 45.417877 3 2 ack 40 ------- 0 5.0 0.0 16 38 0 0x0 0 0
r 45.418392 3 5 tcp 1040 ------N 0 0.0 5.0 17 34 0 0x0 0 0
+ 45.418392 5 3 ack 40 ------- 0 5.0 0.0 17 39 0 0x0 0 0
- 45.418392 5 3 ack 40 ------- 0 5.0 0.0 17 39 0 0x0 0 0
r 45.421451 3 2 ack 40 ------- 0 5.0 0.0 13 35 0 0x0 0 0
+ 45.421451 2 0 ack 40 ------- 0 5.0 0.0 13 35 0 0x0 0 0
- 45.421451 2 0 ack 40 ------- 0 5.0 0.0 13 35 0 0x0 0 0
r 45.423424 5 3 ack 40 ------- 0 5.0 0.0 17 39 0 0x0 0 0
+ 45.423424 3 2 ack 40 ------- 0 5.0 0.0 17 39 0 0x0 0 0
- 45.423424 3 2 ack 40 ------- 0 5.0 0.0 17 39 0 0x0 0 0
r 45.423483 2 0 ack 40 ------- 0 5.0 0.0 13 35 0 0x0 0 0
+ 45.423483 0 2 tcp 1040 ------N 0 0.0 5.0 18 40 0 0x0 0 0
- 45.423483 0 2 tcp 1040 ------N 0 0.0 5.0 18 40 0 0x0 0 0
r 45.426315 0 2 tcp 1040 ------N 0 0.0 5.0 18 40 0 0x0 0 0
+ 45.426315 2 3 tcp 1040 ------N 0 0.0 5.0 18 40 0 0x0 0 0
- 45.426315 2 3 tcp 1040 ------N 0 0.0 5.0 18 40 0 0x0 0 0
r 45.426997 3 2 ack 40 ------- 0 5.0 0.0 14 36 0 0x0 0 0
+ 45.426997 2 0 ack 40 ------- 0 5.0 0.0 14 36 0 0x0 0 0
- 45.426997 2 0 ack 40 ------- 0 5.0 0.0 14 36 0 0x0 0 0
r 45.429029 2 0 ack 40 ------- 0 5.0 0.0 14 36 0 0x0 0 0
+ 45.429029 0 2 tcp 1040 ------N 0 0.0 5.0 19 41 0 0x0 0 0
- 45.429029 0 2 tcp 1040 ------N 0 0.0 5.0 19 41 0 0x0 0 0
r 45.431861 0 2 tcp 1040 ------N 0 0.0 5.0 19 41 0 0x0 0 0
+ 45.431861 2 3 tcp 1040 ------N 0 0.0 5.0 19 41 0 0x0 0 0
- 45.431861 2 3 tcp 1040 ------N 0 0.0 5.0 19 41 0 0x0 0 0
r 45.432544 3 2 ack 40 ------- 0 5.0 0.0 15 37 0 0x0 0 0
+ 45.432544 2 0 ack 40 ------- 0 5.0 0.0 15 37 0 0x0 0 0
- 45.432544 2 0 ack 40 ------- 0 5.0 0.0 15 37 0 0x0 0 0
r 45.434576 2 0 ack 40 ------- 0 5.0 0.0 15 37 0 0x0 0 0
+ 45.434576 0 2 tcp 1040 ------N 0 0.0 5.0 20 42 0 0x0 0 0
- 45.434576 0 2 tcp 1040 ------N 0 0.0 5.0 20 42 0 0x0 0 0
r 45.437408 0 2 tcp 1040 ------N 0 0.0 5.0 20 42 0 0x0 0 0
+ 45.437408 2 3 tcp 1040 ------N 0 0.0 5.0 20 42 0 0x0 0 0
- 45.437408 2 3 tcp 1040 ------N 0 0.0 5.0 20 42 0 0x0 0 0
r 45.438091 3 2 ack 40 ------- 0 5.0 0.0 16 38 0 0x0 0 0
+ 45.438091 2 0 ack 40 ------- 0 5.0 0.0 16 38 0 0x0 0 0
- 45.438091 2 0 ack 40 ------- 0 5.0 0.0 16 38 0 0x0 0 0
r 45.440123 2 0 ack 40 ------- 0 5.0 0.0 16 38 0 0x0 0 0
+ 45.440123 0 2 tcp 1040 ------N 0 0.0 5.0 21 43 0 0x0 0 0
- 45.440123 0 2 tcp 1040 ------N 0 0.0 5.0 21 43 0 0x0 0 0
r 45.442955 0 2 tcp 1040 ------N 0 0.0 5.0 21 43 0 0x0 0 0
+ 45.442955 2 3 tcp 1040 ------N 0 0.0 5.0 21 43 0 0x0 0 0
- 45.442955 2 3 tcp 1040 ------N 0 0.0 5.0 21 43 0 0x0 0 0
r 45.443637 3 2 ack 40 ------- 0 5.0 0.0 17 39 0 0x0 0 0
+ 45.443637 2 0 ack 40 ------- 0 5.0 0.0 17 39 0 0x0 0 0
- 45.443637 2 0 ack 40 ------- 0 5.0 0.0 17 39 0 0x0 0 0
r 45.445669 2 0 ack 40 ------- 0 5.0 0.0 17 39 0 0x0 0 0
+ 45.445669 0 2 tcp 1040 ------N 0 0.0 5.0 22 44 0 0x0 0 0
- 45.445669 0 2 tcp 1040 ------N 0 0.0 5.0 22 44 0 0x0 0 0
+ 45.445669 0 2 tcp 1040 ------N 0 0.0 5.0 23 45 0 0x0 0 0
- 45.446501 0 2 tcp 1040 ------N 0 0.0 5.0 23 45 0 0x0 0 0
r 45.448501 0 2 tcp 1040 ------N 0 0.0 5.0 22 44 0 0x0 0 0
+ 45.448501 2 3 tcp 1040 ------N 0 0.0 5.0 22 44 0 0x0 0 0
- 45.448501 2 3 tcp 1040 ------N 0 0.0 5.0 22 44 0 0x0 0 0
r 45.449333 0 2 tcp 1040 ------N 0 0.0 5.0 23 45 0 0x0 0 0
+ 45.449333 2 3 tcp 1040 ------N 0 0.0 5.0 23 45 0 0x0 0 0
r 45.451861 2 3 tcp 1040 ------N 0 0.0 5.0 18 40 0 0x0 0 0
+ 45.451861 3 5 tcp 1040 ------N 0 0.0 5.0 18 40 0 0x0 0 0
- 45.451861 3 5 tcp 1040 ------N 0 0.0 5.0 18 40 0 0x0 0 0
- 45.454048 2 3 tcp 1040 ------N 0 0.0 5.0 23 45 0 0x0 0 0
r 45.457408 2 3 tcp 1040 ------N 0 0.0 5.0 19 41 0 0x0 0 0
+ 45.457408 3 5 tcp 1040 ------N 0 0.0 5.0 19 41 0 0x0 0 0
- 45.457408 3 5 tcp 1040 ------N 0 0.0 5.0 19 41 0 0x0 0 0
r 45.457693 3 5 tcp 1040 ------N 0 0.0 5.0 18 40 0 0x0 0 0
+ 45.457693 5 3 ack 40 ------- 0 5.0 0.0 18 46 0 0x0 0 0
- 45.457693 5 3 ack 40 ------- 0 5.0 0.0 18 46 0 0x0 0 0
r 45.462725 5 3 ack 40 ------- 0 5.0 0.0 18 46 0 0x0 0 0
+ 45.462725 3 2 ack 40 ------- 0 5.0 0.0 18 46 0 0x0 0 0
- 45.462725 3 2 ack 40 ------- 0 5.0 0.0 18 46 0 0x0 0 0
r 45.462955 2 3 tcp 1040 ------N 0 0.0 5.0 20 42 0 0x0 0 0
+ 45.462955 3 5 tcp 1040 ------N 0 0.0 5.0 20 42 0 0x0 0 0
- 45.462955 3 5 tcp 1040 ------N 0 0.0 5.0 20 42 0 0x0 0 0
r 45.46324 3 5 tcp 1040 ------N 0 0.0 5.0 19 41 0 0x0 0 0
+ 45.46324 5 3 ack 40 ------- 0 5.0 0.0 19 47 0 0x0 0 0
- 45.46324 5 3 ack 40 ------- 0 5.0 0.0 19 47 0 0x0 0 0
r 45.468272 5 3 ack 40 ------- 0 5.0 0.0 19 47 0 0x0 0 0
+ 45.468272 3 2 ack 40 ------- 0 5.0 0.0 19 47 0 0x0 0 0
- 45.468272 3 2 ack 40 ------- 0 5.0 0.0 19 47 0 0x0 0 0
r 45.468501 2 3 tcp 1040 ------N 0 0.0 5.0 21 43 0 0x0 0 0
+ 45.468501 3 5 tcp 1040 ------N 0 0.0 5.0 21 43 0 0x0 0 0
- 45.468501 3 5 tcp 1040 ------N 0 0.0 5.0 21 43 0 0x0 0 0
r 45.468787 3 5 tcp 1040 ------N 0 0.0 5.0 20 42 0 0x0 0 0
+ 45.468787 5 3 ack 40 ------- 0 5.0 0.0 20 48 0 0x0 0 0
- 45.468787 5 3 ack 40 ------- 0 5.0 0.0 20 48 0 0x0 0 0
r 45.473819 5 3 ack 40 ------- 0 5.0 0.0 20 48 0 0x0 0 0
+ 45.473819 3 2 ack 40 ------- 0 5.0 0.0 20 48 0 0x0 0 0
- 45.473819 3 2 ack 40 ------- 0 5.0 0.0 20 48 0 0x0 0 0
r 45.474048 2 3 tcp 1040 ------N 0 0.0 5.0 22 44 0 0x0 0 0
+ 45.474048 3 5 tcp 1040 ------N 0 0.0 5.0 22 44 0 0x0 0 0
- 45.474048 3 5 tcp 1040 ------N 0 0.0 5.0 22 44 0 0x0 0 0
r 45.474333 3 5 tcp 1040 ------N 0 0.0 5.0 21 43 0 0x0 0 0
+ 45.474333 5 3 ack 40 ------- 0 5.0 0.0 21 49 0 0x0 0 0
- 45.474333 5 3 ack 40 ------- 0 5.0 0.0 21 49 0 0x0 0 0
r 45.479365 5 3 ack 40 ------- 0 5.0 0.0 21 49 0 0x0 0 0
+ 45.479365 3 2 ack 40 ------- 0 5.0 0.0 21 49 0 0x0 0 0
- 45.479365 3 2 ack 40 ------- 0 5.0 0.0 21 49 0 0x0 0 0
r 45.479595 2 3 tcp 1040 ------N 0 0.0 5.0 23 45 0 0x0 0 0
+ 45.479595 3 5 tcp 1040 ------N 0 0.0 5.0 23 45 0 0x0 0 0
- 45.479595 3 5 tcp 1040 ------N 0 0.0 5.0 23 45 0 0x0 0 0
r 45.47988 3 5 tcp 1040 ------N 0 0.0 5.0 22 44 0 0x0 0 0
+ 45.47988 5 3 ack 40 ------- 0 5.0 0.0 22 50 0 0x0 0 0
- 45.47988 5 3 ack 40 ------- 0 5.0 0.0 22 50 0 0x0 0 0
r 45.482939 3 2 ack 40 ------- 0 5.0 0.0 18 46 0 0x0 0 0
+ 45.482939 2 0 ack 40 ------- 0 5.0 0.0 18 46 0 0x0 0 0
- 45.482939 2 0 ack 40 ------- 0 5.0 0.0 18 46 0 0x0 0 0
r 45.484912 5 3 ack 40 ------- 0 5.0 0.0 22 50 0 0x0 0 0
+ 45.484912 3 2 ack 40 ------- 0 5.0 0.0 22 50 0 0x0 0 0
- 45.484912 3 2 ack 40 ------- 0 5.0 0.0 22 50 0 0x0 0 0
r 45.484971 2 0 ack 40 ------- 0 5.0 0.0 18 46 0 0x0 0 0
+ 45.484971 0 2 tcp 1040 ------N 0 0.0 5.0 24 51 0 0x0 0 0
- 45.484971 0 2 tcp 1040 ------N 0 0.0 5.0 24 51 0 0x0 0 0
r 45.485427 3 5 tcp 1040 ------N 0 0.0 5.0 23 45 0 0x0 0 0
+ 45.485427 5 3 ack 40 ------- 0 5.0 0.0 23 52 0 0x0 0 0
- 45.485427 5 3 ack 40 ------- 0 5.0 0.0 23 52 0 0x0 0 0
r 45.487803 0 2 tcp 1040 ------N 0 0.0 5.0 24 51 0 0x0 0 0
+ 45.487803 2 3 tcp 1040 ------N 0 0.0 5.0 24 51 0 0x0 0 0
- 45.487803 2 3 tcp 1040 ------N 0 0.0 5.0 24 51 0 0x0 0 0
r 45.488485 3 2 ack 40 ------- 0 5.0 0.0 19 47 0 0x0 0 0
+ 45.488485 2 0 ack 40 ------- 0 5.0 0.0 19 47 0 0x0 0 0
- 45.488485 2 0 ack 40 ------- 0 5.0 0.0 19 47 0 0x0 0 0
r 45.490459 5 3 ack 40 ------- 0 5.0 0.0 23 52 0 0x0 0 0
+ 45.490459 3 2 ack 40 ------- 0 5.0 0.0 23 52 0 0x0 0 0
- 45.490459 3 2 ack 40 ------- 0 5.0 0.0 23 52 0 0x0 0 0
r 45.490517 2 0 ack 40 ------- 0 5.0 0.0 19 47 0 0x0 0 0
r 45.494032 3 2 ack 40 ------- 0 5.0 0.0 20 48 0 0x0 0 0
+ 45.494032 2 0 ack 40 ------- 0 5.0 0.0 20 48 0 0x0 0 0
- 45.494032 2 0 ack 40 ------- 0 5.0 0.0 20 48 0 0x0 0 0
r 45.496064 2 0 ack 40 ------- 0 5.0 0.0 20 48 0 0x0 0 0
r 45.499579 3 2 ack 40 ------- 0 5.0 0.0 21 49 0 0x0 0 0
+ 45.499579 2 0 ack 40 ------- 0 5.0 0.0 21 49 0 0x0 0 0
- 45.499579 2 0 ack 40 ------- 0 5.0 0.0 21 49 0 0x0 0 0
r 45.501611 2 0 ack 40 ------- 0 5.0 0.0 21 49 0 0x0 0 0
r 45.505125 3 2 ack 40 ------- 0 5.0 0.0 22 50 0 0x0 0 0
+ 45.505125 2 0 ack 40 ------- 0 5.0 0.0 22 50 0 0x0 0 0
- 45.505125 2 0 ack 40 ------- 0 5.0 0.0 22 50 0 0x0 0 0
r 45.507157 2 0 ack 40 ------- 0 5.0 0.0 22 50 0 0x0 0 0
r 45.510672 3 2 ack 40 ------- 0 5.0 0.0 23 52 0 0x0 0 0
+ 45.510672 2 0 ack 40 ------- 0 5.0 0.0 23 52 0 0x0 0 0
- 45.510672 2 0 ack 40 ------- 0 5.0 0.0 23 52 0 0x0 0 0
r 45.512704 2 0 ack 40 ------- 0 5.0 0.0 23 52 0 0x0 0 0
r 45.513349 2 3 tcp 1040 ------N 0 0.0 5.0 24 51 0 0x0 0 0
+ 45.513349 3 5 tcp 1040 ------N 0 0.0 5.0 24 51 0 0x0 0 0
- 45.513349 3 5 tcp 1040 ------N 0 0.0 5.0 24 51 0 0x0 0 0
r 45.519181 3 5 tcp 1040 ------N 0 0.0 5.0 24 51 0 0x0 0 0
+ 45.519181 5 3 ack 40 ------- 0 5.0 0.0 24 53 0 0x0 0 0
- 45.519181 5 3 ack 40 ------- 0 5.0 0.0 24 53 0 0x0 0 0
r 45.524213 5 3 ack 40 ------- 0 5.0 0.0 24 53 0 0x0 0 0
+ 45.524213 3 2 ack 40 ------- 0 5.0 0.0 24 53 0 0x0 0 0
- 45.524213 3 2 ack 40 ------- 0 5.0 0.0 24 53 0 0x0 0 0
r 45.544427 3 2 ack 40 ------- 0 5.0 0.0 24 53 0 0x0 0 0
+ 45.544427 2 0 ack 40 ------- 0 5.0 0.0 24 53 0 0x0 0 0
- 45.544427 2 0 ack 40 ------- 0 5.0 0.0 24 53 0 0x0 0 0
r 45.546459 2 0 ack 40 ------- 0 5.0 0.0 24 53 0 0x0 0 0
